# vtk DataFile Version 3.0
Lime grid
ASCII
DATASET UNSTRUCTURED_GRID
POINTS 1500 float
-5.850247e+03 -5.182420e+03 -3.149467e+04
-6.735865e+05 4.178147e+06 1.279923e+06
-7.617203e+06 -3.880981e+06 -1.563411e+06
1.993920e+07 -1.959257e+07 -1.165704e+07
-2.060666e+07 -1.646034e+06 4.732376e+06
2.048605e+06 -2.465753e+06 -1.026200e+06
-3.838959e+01 2.910006e+03 4.180755e+01
1.135658e+02 -1.111823e+02 2.196702e+02
7.892550e+04 2.087820e+04 -1.408496e+05
-6.477496e+03 1.083152e+03 -8.368478e+03
1.216609e+07 2.702028e+05 -9.472556e+06
-3.371981e+02 7.862447e+01 -3.729050e+02
7.789744e+02 3.968661e+02 -3.312868e+02
-1.584699e+05 2.072801e+05 2.098076e+05
6.022614e+05 5.179012e+06 3.334962e+06
-3.820978e+05 6.908047e+05 -1.198310e+06
9.555156e+05 1.084415e+06 -1.248897e+06
8.118192e+04 -9.135321e+04 1.066945e+05
-3.086100e+02 -5.275943e+02 -3.145096e+02
-1.424627e+06 2.362040e+05 1.355472e+06
1.266171e+02 3.163248e+02 3.961052e+02
-8.187647e+04 -3.449967e+03 -2.053071e+05
1.550155e+05 -1.534331e+05 -8.733892e+04
2.898441e+06 1.823275e+05 -1.393604e+06
7.402958e+05 -7.127398e+05 -2.090939e+05
-5.530132e+03 9.450934e+02 2.362733e+02
1.705754e+05 1.067609e+05 -4.827677e+04
-5.476316e+03 3.226390e+06 -2.272888e+06
2.089129e+05 -1.408668e+06 -2.636439e+05
3.999961e+03 8.790533e+03 -9.836215e+03
-2.889954e+04 -4.956501e+03 -2.850130e+04
-1.850444e+04 5.307682e+03 -3.391934e+03
1.094727e+03 1.870354e+01 -1.561430e+02
3.890508e+06 2.178826e+06 -2.936194e+06
-5.057355e+07 6.262757e+06 1.738092e+07
-7.451832e+03 8.110369e+03 -5.965689e+03
-1.451195e+03 1.338825e+03 1.527393e+03
9.824698e+06 2.772419e+07 -3.003528e+07
-3.264842e+06 2.541553e+06 -1.891261e+05
1.812484e+04 -6.365291e+03 5.406005e+03
-6.001306e+02 7.761407e+02 -1.776400e+03
7.459635e+06 3.400724e+07 -7.905022e+07
4.346216e+07 -2.498007e+07 -6.894271e+07
3.787336e+07 -5.329411e+07 -3.572999e+06
2.511512e+06 8.231623e+05 3.988550e+04
-1.073410e+02 -2.012246e+02 -3.998723e+02
3.528216e+06 -3.367978e+07 6.155006e+07
6.081741e+03 2.141212e+03 6.821032e+03
-3.749356e+03 -3.541457e+03 -2.475198e+03
-8.855319e+03 9.422673e+03 6.292333e+03
2.580875e+06 -4.941135e+06 3.036883e+06
2.528104e+05 5.009399e+05 1.342018e+05
-1.880664e+02 -1.726365e+03 -1.092711e+03
-1.855682e+04 5.462876e+04 1.626162e+05
1.178250e+03 1.225672e+03 -7.431365e+01
-4.807583e+02 8.126242e+02 3.762037e+01
4.472074e+04 1.014328e+05 -2.119886e+04
-9.892598e+04 3.037991e+07 2.626934e+07
-9.620850e+04 -9.434655e+04 2.211993e+05
-2.069294e+02 -3.153901e+02 -1.144147e+02
-2.828273e+04 -2.759269e+03 -6.019058e+02
-1.247301e+04 -2.459128e+04 -1.194442e+05
8.822946e+04 1.486227e+04 2.492198e+04
8.468327e+06 -4.672242e+07 6.199067e+06
4.073846e+07 1.061182e+07 -6.084737e+07
2.045848e+06 6.665284e+06 7.231876e+06
-2.011613e+03 3.084661e+02 1.862996e+03
-5.348959e+03 6.866656e+03 4.285580e+03
-2.688403e+05 3.536956e+04 -1.196747e+05
-3.410078e+02 -2.345355e+02 -2.010381e+02
-5.622545e+02 4.942364e+02 3.004000e+03
4.948550e+05 3.280551e+05 5.556919e+05
1.274249e+06 -2.884674e+05 -3.720510e+05
-2.775455e+07 -2.353284e+06 -8.206895e+06
-9.652403e+03 -2.551759e+03 -4.949087e+03
-3.019920e+05 -2.689066e+05 7.972111e+04
-2.678518e+07 1.490309e+07 -1.184167e+07
3.106169e+04 6.349170e+03 9.016170e+03
-6.803873e+03 -1.488071e+05 4.988754e+04
-2.416852e+05 -3.491462e+05 -1.350407e+05
3.594759e+05 1.321326e+05 -2.531008e+04
4.900552e+02 -5.133998e+02 -8.397219e+00
8.475162e+03 1.728606e+04 -2.020508e+04
2.739882e+07 3.625256e+07 -1.822038e+07
-4.595924e+04 -1.030662e+04 -2.035898e+04
1.537890e+06 2.631463e+06 -1.362455e+06
1.407139e+03 1.429385e+03 3.511292e+03
-2.101231e+02 -3.481278e+02 -2.951333e+02
-4.671888e+06 3.168208e+06 -2.609368e+06
5.208659e+02 -9.435690e+01 2.621799e+02
-3.559271e+04 6.921151e+03 -9.929411e+03
4.098549e+02 4.789521e+02 -2.049353e+02
-9.724450e+02 9.782840e+03 -1.011871e+04
-3.152611e+03 1.542003e+04 -1.299841e+04
-7.788942e+04 -3.441582e+04 -7.411628e+04
-4.643102e+02 -1.207939e+03 1.658603e+03
2.546669e+04 1.066564e+05 -1.309955e+06
8.336679e+06 -2.171534e+06 1.240027e+06
-5.188474e+04 -8.904214e+04 -5.949012e+04
1.343387e+04 1.609974e+06 -5.295275e+05
6.765315e+05 -1.417479e+06 -3.042846e+06
-1.957714e+01 4.168256e-01 -8.478208e+02
5.442282e+03 -1.767476e+03 -1.239731e+04
-1.259496e+03 1.824927e+01 1.282294e+03
4.631629e+05 3.069174e+05 -4.175565e+05
4.316029e+06 -1.262335e+07 -1.681625e+07
-3.393900e+05 9.017157e+06 -2.744971e+06
-1.111412e+05 1.432691e+06 4.388698e+05
1.265420e+06 1.466500e+06 1.422228e+06
8.705372e+03 -1.565293e+03 -7.393889e+02
-6.908538e+02 1.175652e+03 -4.544914e+02
-2.757750e+03 7.895979e+02 -4.795616e+02
3.030831e+03 2.650221e+03 4.995228e+03
4.516727e+05 -2.849603e+04 6.750586e+04
4.757567e+05 1.159588e+04 -3.359035e+05
3.690612e+02 -4.710107e+01 4.429926e+02
-5.605721e+06 3.425652e+06 3.857897e+06
2.182241e+05 -3.762863e+05 6.593227e+05
9.371672e+05 -2.524596e+05 9.429098e+04
-1.070521e+05 1.608791e+05 -1.529810e+05
4.926080e+03 -6.298571e+03 -2.211915e+04
-1.292386e+03 1.151176e+03 -1.559282e+02
4.372525e+04 -6.277638e+03 7.816209e+03
-2.507981e+05 2.139868e+04 8.612490e+05
-1.012274e+06 -4.178696e+05 -1.476823e+05
1.958643e+04 -2.320494e+04 9.570257e+03
-2.134056e+03 -3.112613e+03 7.901954e+03
-3.011453e+05 -8.926345e+05 1.721717e+06
7.412802e+03 4.498140e+03 -9.075622e+03
2.174853e+05 3.113538e+05 1.205082e+06
-2.542400e+03 -1.332109e+04 1.968414e+04
-1.740113e+05 -3.850755e+06 -2.924247e+06
-4.381767e+02 1.267021e+03 -4.953895e+03
1.184110e+07 -1.870162e+07 -3.080198e+06
1.277638e+07 8.879314e+05 1.402748e+07
6.142778e+06 1.375315e+06 -7.629861e+06
-1.602460e+07 -3.833362e+07 5.092448e+07
-2.502532e+02 3.945926e+02 -1.176899e-01
-1.748197e+03 -3.390084e+04 -2.171553e+03
2.197869e+07 -2.846004e+06 -3.031130e+07
1.740895e+04 -6.283872e+03 -1.669988e+04
-4.766165e+05 -1.576014e+05 -7.115285e+05
-4.178972e+03 4.259689e+05 1.018633e+05
-2.948707e+04 3.947955e+04 -6.007474e+03
8.605044e+01 3.019244e+03 7.161577e+03
-2.928845e+05 -2.204633e+05 3.662563e+05
3.935437e+02 -9.153415e+02 -1.203159e+02
3.950552e+07 -5.663516e+07 1.131180e+07
-2.624469e+06 4.458668e+05 1.316715e+06
-2.849404e+06 1.595465e+06 5.385144e+05
-3.222711e+07 2.703171e+06 -1.712294e+07
2.287475e+02 -2.932492e+03 -3.182937e+03
-1.195557e+03 -3.491686e+04 -2.404707e+04
6.986156e+06 -6.837034e+06 2.277778e+06
-4.765933e+07 5.062245e+07 1.181328e+07
-3.377321e+05 8.797387e+05 1.422206e+06
4.065731e+06 -1.458161e+06 -8.079141e+05
-1.606455e+04 -2.953464e+03 -6.009152e+03
1.289079e+04 1.027834e+03 1.793561e+03
2.423992e+04 -1.652613e+04 6.008062e+04
4.521787e+03 -5.136721e+03 -6.733326e+04
9.537988e+06 1.466317e+07 -5.517784e+07
9.051294e+01 -5.055628e+02 8.772963e+02
-1.858947e+04 8.060838e+03 -3.037074e+04
-3.057813e+02 -2.008809e+02 3.571789e+02
3.664728e+04 -2.059664e+04 1.305923e+04
-9.934776e+05 -6.771702e+04 2.232974e+05
-1.567637e+04 -2.413168e+03 -8.711443e+02
-8.211431e+02 1.000066e+04 -3.554867e+04
3.742024e+05 -1.107863e+05 -1.522468e+05
2.919874e+03 5.940798e+03 2.342846e+03
-1.572974e+05 -3.198576e+05 2.180327e+05
4.113501e+04 -9.539958e+04 -1.920990e+05
9.069015e+06 2.409795e+06 -4.699421e+06
1.744362e+05 -2.878305e+06 7.945635e+05
3.359151e+02 2.655922e+02 3.788001e+02
-9.757380e+03 3.161323e+03 -1.250991e+04
-6.599316e+03 -5.726755e+04 1.293692e+05
2.461449e+06 3.370376e+06 -7.380959e+06
-4.509861e+05 1.026700e+06 -2.480178e+05
3.974045e+07 1.125004e+07 7.050015e+07
7.669126e+04 -2.074932e+04 -7.493389e+02
5.050242e+04 -1.115742e+05 4.001686e+03
4.047629e+02 1.907448e+02 1.471069e+02
3.210019e+07 5.185013e+07 1.146066e+07
-3.250108e+06 2.563555e+06 4.012453e+06
1.018040e+04 2.548567e+03 2.576456e+03
4.318043e+05 -9.438879e+06 -1.450734e+06
-1.603848e+04 1.370672e+04 -5.142263e+04
-5.342311e+05 -9.361534e+05 -5.618242e+05
-3.783282e+05 2.878164e+06 -6.287846e+05
1.131526e+07 6.305775e+06 -1.557688e+06
1.244082e+03 1.984859e+04 -9.093661e+03
-7.782594e+02 6.410775e+03 -5.171586e+03
-4.101708e+05 2.486803e+05 2.029191e+04
-1.023352e+02 6.589946e+02 -1.976352e+02
1.872107e+03 -8.701149e+02 -3.192131e+03
-9.095087e+02 -2.036308e+03 -4.584197e+02
6.620769e+03 2.882090e+05 1.038494e+05
-1.396037e+02 -5.777213e+01 2.089168e+02
-1.622906e+03 -2.403321e+02 6.804459e+02
1.066794e+07 -8.314690e+06 -5.152796e+05
-2.011687e+03 5.532326e+04 -1.452381e+05
2.113487e+03 5.196594e+02 1.520708e+04
1.163754e+03 5.422969e+02 -6.501316e+02
-4.972314e+07 1.547689e+07 -3.473822e+07
-7.609334e+06 -5.369432e+06 1.067341e+07
2.164305e+07 6.217117e+07 -1.519935e+07
-2.646118e+02 -1.489899e+02 3.750168e+01
6.614498e+04 -2.192031e+05 4.944738e+04
-2.452773e+03 -1.588720e+03 -5.894946e+02
1.457795e+06 -1.471003e+04 1.665056e+06
-2.713322e+06 1.166637e+05 2.618235e+06
2.728580e+05 2.825366e+04 2.106965e+05
3.220195e+06 -2.013591e+07 7.085756e+06
-3.723924e+06 -3.683902e+06 -9.527098e+05
-7.199808e+04 -6.161940e+05 2.949835e+05
-1.526760e+05 1.591292e+05 6.390807e+04
7.081637e+02 1.943553e+02 3.386520e+02
3.654380e+06 -1.043347e+06 1.492662e+06
-1.152218e+05 -2.162260e+04 9.298163e+04
-2.798514e+07 1.082172e+07 1.837417e+07
1.569644e+07 -1.400038e+07 3.493107e+07
3.585780e+04 -3.149856e+04 -8.663558e+03
-3.609651e+07 3.591991e+07 -5.691768e+07
-1.538354e+06 -1.007921e+06 -2.027301e+05
2.416376e+02 7.146716e+01 2.372071e+01
-2.541262e+06 4.717031e+05 -8.409255e+05
1.656395e+05 6.689860e+04 1.984219e+04
-6.576703e+07 2.045591e+07 3.559239e+07
-9.530765e+05 -3.327307e+06 -3.906425e+05
1.091400e+05 -6.021326e+06 1.395732e+06
-3.036048e+06 1.578660e+07 1.027782e+07
2.191030e+07 -3.278698e+07 -5.675479e+06
7.726608e+06 4.891526e+06 3.834628e+07
3.298733e+07 -6.159288e+07 -2.650821e+07
-1.331963e+05 -4.347066e+05 -9.045968e+05
-1.404320e+03 -1.241212e+03 1.125132e+03
-4.847450e+04 6.594014e+03 2.643089e+04
6.417854e+05 1.234579e+05 1.750529e+04
3.175424e+04 1.404606e+04 -3.963304e+03
-1.131154e+07 2.110333e+07 -7.564087e+06
-1.810415e+07 -2.528781e+07 1.923517e+07
1.041144e+05 1.644184e+05 -5.241050e+04
[...]
POINT_DATA 1500
SCALARS H2_density float 1
LOOKUP_TABLE default
1.079084e+14
5.444873e+09
1.322515e+09
7.895259e+07
1.843454e+08
9.543535e+09
1.341901e+16
1.546401e+18
4.278903e+12
1.004432e+15
3.799755e+08
4.390211e+17
1.300611e+17
1.009099e+12
2.706471e+09
5.404134e+10
3.028336e+10
4.308871e+12
2.405884e+17
2.813894e+10
4.164261e+17
2.318731e+12
2.052282e+12
1.044296e+10
1.017691e+11
3.605062e+15
2.646438e+12
6.882277e+09
5.304293e+10
5.981276e+14
6.794731e+13
2.974396e+14
9.293994e+16
3.683513e+09
1.759398e+07
7.244285e+14
1.824289e+16
3.440453e+07
6.230738e+09
2.853681e+14
2.760432e+16
4.211906e+06
4.398730e+06
1.000443e+07
1.564302e+10
5.364571e+17
8.095280e+06
1.290212e+15
3.473439e+15
5.496106e+14
2.566642e+09
3.386066e+11
2.700384e+16
3.808541e+12
3.925294e+16
1.273158e+17
8.909691e+12
3.876221e+07
1.688039e+12
7.316282e+17
1.406555e+14
7.551286e+12
1.316014e+13
2.430456e+07
6.902439e+06
9.700843e+08
1.493301e+16
1.207558e+15
1.288378e+12
5.369683e+17
1.186059e+16
1.698399e+11
6.037158e+10
8.750518e+07
9.153560e+14
6.651549e+11
6.455465e+07
1.045867e+14
4.595744e+12
5.687740e+11
7.672584e+11
2.256451e+17
1.458950e+14
2.288400e+07
4.314347e+13
9.704891e+09
6.951614e+15
4.503150e+17
2.679678e+09
3.257872e+17
8.039025e+13
2.587336e+17
5.710384e+14
2.727489e+14
8.905161e+12
2.568621e+16
6.451319e+10
1.318325e+09
8.014414e+12
3.858872e+10
9.213197e+09
1.580690e+17
6.096420e+14
3.518450e+16
2.329096e+11
1.792441e+08
1.110521e+09
4.924233e+10
1.899467e+10
1.442836e+15
5.502406e+16
1.343920e+16
2.761564e+15
5.392676e+11
3.321464e+11
3.396842e+17
1.748611e+09
1.800765e+11
1.178281e+11
1.864598e+12
2.054290e+14
3.764481e+16
5.645311e+13
1.393277e+11
9.157744e+10
1.120940e+14
1.482293e+15
2.866429e+10
7.214281e+14
6.988189e+10
1.988896e+14
4.518717e+09
4.315879e+15
1.632010e+08
2.374850e+08
1.002836e+09
9.893860e+06
5.206857e+17
9.820287e+13
4.610470e+07
1.828642e+14
1.479913e+11
5.887274e+11
4.609917e+13
1.881580e+15
4.200981e+11
1.128675e+17
8.193617e+06
1.233120e+10
9.878664e+09
4.923946e+07
6.052028e+15
6.315622e+13
9.718630e+08
8.000197e+06
3.807757e+10
5.514698e+09
3.752120e+14
6.668393e+14
2.540485e+13
2.479318e+13
1.433389e+07
1.100024e+17
8.524119e+13
4.348404e+17
5.862748e+13
1.075123e+11
4.504215e+14
8.327468e+13
6.438075e+11
2.305325e+15
6.471015e+11
2.375776e+12
8.828891e+08
1.215367e+10
3.477895e+17
4.342970e+14
5.655308e+12
1.393692e+09
8.472627e+10
5.045969e+06
1.798735e+13
7.557281e+12
5.124080e+17
1.172380e+07
3.139279e+09
9.733669e+14
1.079007e+09
3.676711e+13
7.556602e+10
1.232841e+10
5.499520e+08
2.376473e+14
1.660624e+15
4.896990e+11
2.349721e+17
7.865965e+15
2.192908e+16
1.205253e+12
1.710192e+18
3.603608e+16
5.072865e+08
4.694739e+12
4.816094e+14
5.488905e+16
1.142517e+07
4.588472e+08
9.109679e+06
1.214239e+18
2.064626e+12
1.279048e+16
2.245869e+10
7.552185e+09
9.452998e+11
1.768949e+08
3.704886e+09
2.384551e+11
2.149131e+12
1.738357e+17
6.416995e+09
5.066247e+12
5.439466e+07
3.726607e+07
4.827885e+13
6.252868e+06
3.230394e+10
1.774641e+18
1.477791e+10
3.509559e+12
5.964529e+06
8.897026e+09
2.713177e+09
2.350489e+08
3.958083e+07
4.067903e+07
6.692583e+06
1.092497e+11
2.378884e+16
3.673789e+13
2.633866e+11
9.303206e+13
1.240692e+08
4.932677e+07
2.790284e+12
2.685491e+14
8.445188e+16
1.147202e+09
2.094007e+13
7.671997e+11
2.692183e+15
1.401630e+17
4.335574e+14
2.864179e+06
6.918918e+13
7.293123e+08
1.131521e+12
1.763685e+11
1.490482e+14
2.591145e+12
2.146208e+14
3.398373e+08
7.918087e+11
5.881514e+07
2.349061e+17
4.100950e+08
7.522258e+13
1.941525e+12
1.860622e+11
3.869641e+14
3.217519e+16
2.045262e+10
1.079359e+16
2.044532e+07
5.460333e+15
9.544281e+08
1.203347e+16
5.195468e+06
3.239970e+14
3.558649e+08
4.411324e+07
9.461305e+10
3.422281e+15
7.171015e+16
7.502174e+11
2.000947e+09
3.714468e+14
8.689255e+11
6.172577e+16
1.389706e+09
3.343702e+17
1.582063e+11
6.433596e+08
2.394631e+15
1.116327e+09
4.694461e+13
5.359713e+12
3.154812e+08
2.079115e+14
5.350218e+17
2.180179e+12
2.656313e+10
2.232873e+11
1.332146e+09
6.309200e+12
1.311661e+11
7.587682e+07
4.242367e+12
2.353661e+12
2.146178e+11
2.938624e+13
1.000009e+07
4.958978e+08
1.007394e+13
5.715876e+14
7.790261e+06
3.390210e+07
6.676221e+13
1.335614e+10
5.481600e+09
1.454858e+12
4.097683e+11
4.807763e+10
1.256330e+17
3.696076e+10
1.277372e+16
6.080599e+13
1.123541e+08
3.236083e+11
2.155771e+09
2.308500e+16
2.132093e+16
2.921556e+16
3.368351e+06
2.869941e+12
1.494281e+09
1.246924e+10
2.010011e+12
1.060793e+08
4.228569e+11
3.955551e+11
7.021294e+10
4.755130e+15
2.517522e+12
1.494214e+14
7.867933e+16
1.475482e+07
1.683525e+09
2.590654e+14
1.974313e+16
2.682751e+06
2.711213e+13
7.249565e+09
1.893639e+10
2.557430e+08
7.770634e+12
9.680522e+17
4.219004e+17
2.014883e+07
1.253402e+12
2.634931e+17
7.067188e+13
2.354112e+13
1.295897e+09
8.177642e+14
1.141749e+12
1.224847e+08
1.225592e+17
1.024426e+09
6.070894e+06
5.349314e+15
4.676957e+06
3.923881e+16
8.704800e+17
1.543471e+13
6.038134e+06
7.950588e+12
3.427535e+11
2.441202e+16
7.554145e+09
1.750580e+09
5.578891e+06
1.614798e+14
3.365464e+07
7.141183e+14
1.160330e+08
2.107737e+15
1.990691e+11
9.276366e+15
3.738449e+13
3.276332e+09
7.521043e+06
1.168270e+17
1.050903e+07
1.790545e+17
5.015959e+09
8.366700e+14
1.893609e+17
5.098802e+12
3.004154e+14
8.318369e+10
4.896710e+14
2.076664e+17
1.512935e+12
9.624023e+13
2.596979e+12
9.124076e+14
9.371867e+10
1.071088e+08
2.686653e+14
1.695784e+15
3.887761e+14
7.852204e+08
1.040937e+16
1.931535e+09
2.953298e+13
1.018722e+13
1.872906e+14
6.257541e+06
3.704292e+11
5.542968e+16
4.870037e+08
4.174966e+13
4.828090e+10
4.143129e+15
6.527016e+15
5.987151e+16
2.507695e+07
8.977225e+06
8.665391e+07
9.071822e+16
3.263024e+09
2.759394e+14
4.081124e+07
5.393107e+08
4.042657e+17
3.909183e+07
1.287959e+16
7.940387e+17
1.867267e+15
3.026029e+10
2.415767e+16
5.808636e+10
2.266486e+16
7.466326e+11
3.209879e+08
5.779094e+16
4.524954e+08
5.632144e+10
2.242746e+12
1.629281e+11
2.890697e+11
5.548796e+09
1.722980e+12
1.500965e+14
3.764500e+13
9.439088e+11
8.177342e+15
3.528522e+10
4.163109e+09
1.594741e+10
5.575530e+12
4.187931e+10
4.659582e+09
1.555693e+09
1.253616e+16
7.548244e+09
1.303656e+18
3.499122e+16
3.139739e+16
4.030008e+11
8.879461e+07
2.706035e+15
1.539050e+18
6.607105e+15
7.141348e+13
1.008774e+16
2.867764e+16
2.925384e+17
8.471254e+07
3.307890e+08
1.241435e+09
1.925185e+16
9.359385e+09
6.016494e+13
4.298678e+09
5.943663e+16
4.424694e+12
7.524625e+17
3.140423e+13
5.679973e+07
8.308210e+16
8.930487e+12
4.282759e+11
2.616796e+08
3.541250e+12
2.006235e+15
4.660860e+13
5.204382e+15
1.138802e+16
3.889662e+16
4.829258e+07
7.913882e+13
4.394741e+06
3.974074e+07
1.289230e+07
2.597800e+16
8.033119e+17
1.596716e+10
1.878399e+08
3.901965e+08
1.971173e+14
8.851830e+13
3.991843e+15
1.928498e+11
6.524714e+13
6.780378e+17
1.125638e+12
1.720891e+16
2.857043e+10
3.613059e+06
1.416671e+14
3.222385e+14
1.374873e+15
8.844693e+12
9.141756e+06
4.312404e+16
3.007472e+14
7.558955e+17
7.005567e+16
1.169057e+15
1.526068e+17
2.823082e+14
4.783062e+14
1.152123e+14
4.199175e+15
6.364020e+17
9.097377e+15
1.733693e+15
7.965067e+15
6.680730e+08
4.178317e+14
7.027164e+07
1.615104e+13
7.940367e+13
8.434158e+08
6.489831e+14
1.738439e+12
2.784899e+13
2.083937e+14
2.582532e+08
8.241359e+08
4.242994e+09
1.367939e+12
5.984608e+16
3.697609e+07
1.088628e+18
5.622817e+13
3.980947e+14
1.375450e+13
1.885263e+09
1.203187e+16
2.078696e+09
2.799733e+09
8.070420e+15
7.175294e+17
3.602613e+17
3.627356e+15
9.204400e+10
9.378752e+11
1.331995e+17
1.420971e+18
6.667496e+10
6.667042e+08
5.044589e+16
2.634528e+14
2.322804e+09
2.718070e+06
5.949583e+17
2.063204e+11
1.718059e+08
1.391842e+08
1.693082e+17
7.242829e+07
1.123930e+07
1.067106e+16
1.033919e+09
1.883724e+14
3.554993e+08
1.284926e+15
1.170109e+18
1.561317e+09
1.382269e+07
5.338752e+11
5.238417e+08
1.028254e+11
6.642041e+09
1.802582e+13
1.827145e+10
2.233077e+09
8.278700e+15
1.802879e+16
2.029380e+12
2.646079e+13
1.240223e+16
5.804677e+10
7.670363e+16
5.140259e+16
2.298020e+13
1.666542e+10
7.316173e+11
2.389212e+11
2.167273e+11
1.629720e+10
1.795808e+07
1.841223e+13
3.396352e+09
2.236750e+07
1.641753e+13
1.219583e+08
4.062523e+13
1.615359e+15
7.890708e+10
2.002425e+07
2.294882e+17
7.176775e+16
1.055630e+16
1.889235e+10
3.146944e+09
7.635555e+09
3.082681e+16
8.218751e+13
2.229321e+11
1.029895e+13
1.528119e+09
6.204336e+08
2.714686e+10
1.675244e+11
3.000316e+15
1.266111e+10
3.291973e+17
1.436791e+08
1.796113e+16
4.223893e+08
9.944772e+06
2.387277e+10
1.599258e+15
1.812238e+10
6.561563e+08
4.305189e+17
1.306882e+10
4.047877e+07
4.267916e+13
4.022399e+14
8.691649e+10
6.067530e+11
5.891822e+12
1.313743e+17
6.103972e+17
4.743215e+15
2.681547e+16
1.256545e+12
1.759481e+10
6.926615e+06
1.279852e+10
2.006403e+11
2.118683e+15
3.411167e+09
9.877763e+15
1.684665e+18
7.123892e+07
5.656236e+11
9.451268e+13
1.787265e+12
1.412584e+14
4.120849e+12
3.162560e+12
1.004772e+07
1.705207e+11
3.651358e+15
3.430504e+17
4.065256e+15
5.880666e+12
4.554288e+17
2.802453e+08
1.211221e+13
2.225259e+08
1.023612e+15
2.403243e+12
2.774086e+10
1.180679e+08
5.295276e+14
2.167339e+12
2.949977e+10
7.577705e+09
6.933889e+15
1.446403e+08
2.434569e+14
6.832438e+10
3.618363e+17
1.155255e+10
3.687284e+16
3.850780e+08
5.084275e+08
2.296551e+17
5.879695e+06
7.365409e+09
6.367236e+16
1.072136e+10
2.701902e+12
7.174315e+12
2.994773e+08
6.866677e+14
2.061762e+14
1.048776e+14
2.955220e+08
9.819280e+14
9.782036e+15
8.429477e+11
8.141878e+15
3.868499e+17
2.824654e+14
2.102707e+13
1.243795e+15
8.348239e+06
2.704764e+11
2.988846e+09
1.141423e+17
1.970662e+17
5.192012e+08
1.580131e+15
1.588356e+12
6.598467e+11
2.068035e+07
2.005043e+09
6.693369e+08
5.409062e+14
1.270714e+11
2.297771e+16
8.280835e+11
6.082008e+15
3.500360e+15
8.151561e+13
5.726531e+10
3.393080e+14
7.818620e+08
5.495298e+07
1.185870e+17
6.323632e+15
6.124622e+13
1.566471e+18
7.599639e+06
3.112706e+15
9.490802e+07
1.110926e+14
4.661386e+11
5.723704e+06
1.047318e+15
1.405447e+16
8.648159e+07
2.961895e+17
6.758610e+14
7.085461e+17
2.922637e+06
2.456605e+10
1.140337e+17
1.747083e+08
2.690849e+17
1.289535e+11
1.569829e+14
2.702009e+13
1.772335e+09
2.586906e+12
1.504240e+17
1.369891e+13
1.208781e+07
8.644171e+08
7.216972e+13
2.570780e+12
1.727067e+13
9.153934e+08
1.744342e+18
2.653341e+07
9.059265e+17
1.136152e+07
2.053613e+12
5.360820e+16
1.840092e+15
5.871375e+15
5.722839e+08
7.837655e+10
2.143603e+09
1.053394e+16
1.318245e+13
1.681203e+15
2.506441e+07
2.031606e+09
5.040045e+11
8.226062e+14
3.833141e+08
8.131660e+16
4.902812e+12
5.740823e+13
1.245473e+13
1.719300e+15
1.899316e+10
6.714696e+07
1.051092e+09
8.054111e+12
9.608730e+07
7.350661e+11
4.894726e+08
6.169193e+14
5.226762e+15
4.620338e+14
8.050787e+16
1.661793e+15
2.903595e+06
9.454440e+15
1.357619e+08
4.769430e+17
1.361333e+18
2.499786e+07
4.492368e+13
2.979607e+13
1.808698e+11
6.724398e+06
7.185180e+10
4.652343e+14
6.510778e+15
6.474380e+14
1.540107e+07
2.019916e+10
2.911579e+12
3.685660e+14
3.581957e+08
1.624538e+11
1.005333e+12
3.364521e+14
2.553561e+15
7.114474e+15
1.321286e+11
1.148319e+08
4.138446e+10
3.721731e+15
2.734029e+08
1.248687e+17
6.476362e+10
1.614782e+09
1.571108e+10
1.877338e+15
1.158517e+11
2.065965e+08
1.688379e+14
3.014612e+13
2.841557e+07
2.393463e+07
1.557382e+09
2.333998e+10
3.682052e+11
7.062980e+16
1.980630e+07
4.344244e+10
7.418624e+17
6.847472e+10
3.325747e+08
5.315055e+07
3.833231e+07
2.815101e+10
6.786874e+10
2.480688e+16
1.137331e+12
7.880320e+13
1.637211e+12
7.474128e+09
2.198922e+08
9.024338e+09
2.548215e+13
5.367573e+11
1.250373e+15
2.646977e+13
3.811616e+09
2.329911e+07
2.318693e+08
8.823279e+10
8.763157e+12
8.356488e+14
1.639415e+12
1.241475e+18
1.348769e+18
1.039775e+13
3.125796e+11
4.924894e+12
3.409437e+08
6.904938e+13
1.035352e+12
5.231066e+06
6.652361e+10
6.208264e+17
8.273362e+14
3.537376e+09
2.674908e+11
1.206279e+16
3.636318e+17
2.426044e+16
1.330773e+11
2.415373e+12
3.653830e+09
2.899647e+06
3.151186e+14
3.434554e+17
3.106349e+08
1.155477e+08
5.719619e+15
1.767516e+08
3.246558e+13
9.148281e+07
6.920641e+12
1.195072e+16
7.363528e+16
1.465891e+13
5.055215e+06
2.303397e+11
1.188244e+08
5.889804e+12
2.376484e+13
2.461727e+15
9.024201e+07
2.648040e+06
6.287062e+14
2.467539e+11
6.155789e+07
1.484230e+16
7.885913e+16
4.400185e+10
4.093391e+07
1.111855e+13
1.498487e+18
2.835089e+11
1.999505e+09
5.692493e+11
2.095000e+09
4.013633e+09
5.101065e+17
8.245575e+15
5.799256e+16
1.161617e+11
7.390173e+14
1.591569e+12
4.437094e+09
1.229733e+17
1.313210e+14
2.881565e+08
5.556464e+10
3.593598e+11
5.545500e+06
4.087597e+09
6.365747e+06
3.895378e+10
4.701123e+08
1.927362e+08
1.795909e+15
6.912757e+14
1.201039e+12
4.727860e+12
5.919628e+08
1.016465e+15
2.913075e+09
1.524238e+10
6.815354e+06
3.651003e+12
1.066415e+14
4.225281e+14
5.968132e+09
9.345040e+15
2.980739e+11
3.547584e+12
1.390033e+15
3.206299e+11
1.128845e+16
5.558984e+12
3.695425e+09
3.390200e+16
6.602003e+14
9.475771e+16
1.397403e+14
3.520799e+11
2.882765e+17
2.907971e+14
6.345758e+09
1.601138e+15
1.456554e+17
7.418778e+10
5.173978e+15
2.757458e+07
1.262251e+18
2.324959e+11
6.615299e+16
1.956680e+08
4.055116e+17
4.280878e+11
1.000000e-30
1.000000e-30
1.000000e-30
1.000000e-30
1.000000e-30
1.000000e-30
1.000000e-30
1.000000e-30
1.000000e-30
1.000000e-30
1.000000e-30
1.000000e-30
1.000000e-30
1.000000e-30
1.000000e-30
1.000000e-30
1.000000e-30
1.000000e-30
1.000000e-30
1.000000e-30
1.000000e-30
1.000000e-30
1.000000e-30
1.000000e-30
1.000000e-30
1.000000e-30
1.000000e-30
1.000000e-30
1.000000e-30
1.000000e-30
1.000000e-30
1.000000e-30
1.000000e-30
1.000000e-30
1.000000e-30
1.000000e-30
1.000000e-30
1.000000e-30
1.000000e-30
1.000000e-30
1.000000e-30
1.000000e-30
1.000000e-30
1.000000e-30
1.000000e-30
1.000000e-30
1.000000e-30
1.000000e-30
1.000000e-30
1.000000e-30
1.000000e-30
1.000000e-30
1.000000e-30
1.000000e-30
1.000000e-30
1.000000e-30
1.000000e-30
1.000000e-30
1.000000e-30
1.000000e-30
1.000000e-30
1.000000e-30
1.000000e-30
1.000000e-30
1.000000e-30
1.000000e-30
1.000000e-30
1.000000e-30
1.000000e-30
1.000000e-30
1.000000e-30
1.000000e-30
1.000000e-30
1.000000e-30
1.000000e-30
1.000000e-30
1.000000e-30
1.000000e-30
1.000000e-30
1.000000e-30
1.000000e-30
1.000000e-30
1.000000e-30
1.000000e-30
1.000000e-30
1.000000e-30
1.000000e-30
1.000000e-30
1.000000e-30
1.000000e-30
1.000000e-30
1.000000e-30
1.000000e-30
1.000000e-30
1.000000e-30
1.000000e-30
1.000000e-30
1.000000e-30
1.000000e-30
1.000000e-30
1.000000e-30
1.000000e-30
1.000000e-30
1.000000e-30
1.000000e-30
1.000000e-30
1.000000e-30
1.000000e-30
1.000000e-30
1.000000e-30
1.000000e-30
1.000000e-30
1.000000e-30
1.000000e-30
1.000000e-30
1.000000e-30
1.000000e-30
1.000000e-30
1.000000e-30
1.000000e-30
1.000000e-30
1.000000e-30
1.000000e-30
1.000000e-30
1.000000e-30
1.000000e-30
1.000000e-30
1.000000e-30
1.000000e-30
1.000000e-30
1.000000e-30
1.000000e-30
1.000000e-30
1.000000e-30
1.000000e-30
1.000000e-30
1.000000e-30
1.000000e-30
1.000000e-30
1.000000e-30
1.000000e-30
1.000000e-30
1.000000e-30
1.000000e-30
1.000000e-30
1.000000e-30
1.000000e-30
1.000000e-30
1.000000e-30
1.000000e-30
1.000000e-30
1.000000e-30
1.000000e-30
1.000000e-30
1.000000e-30
1.000000e-30
1.000000e-30
1.000000e-30
1.000000e-30
1.000000e-30
1.000000e-30
1.000000e-30
1.000000e-30
1.000000e-30
1.000000e-30
1.000000e-30
1.000000e-30
1.000000e-30
1.000000e-30
1.000000e-30
1.000000e-30
1.000000e-30
1.000000e-30
1.000000e-30
1.000000e-30
1.000000e-30
1.000000e-30
1.000000e-30
1.000000e-30
1.000000e-30
1.000000e-30
1.000000e-30
1.000000e-30
1.000000e-30
1.000000e-30
1.000000e-30
1.000000e-30
1.000000e-30
1.000000e-30
1.000000e-30
1.000000e-30
1.000000e-30
1.000000e-30
1.000000e-30
1.000000e-30
1.000000e-30
1.000000e-30
1.000000e-30
1.000000e-30
1.000000e-30
1.000000e-30
1.000000e-30
1.000000e-30
1.000000e-30
1.000000e-30
1.000000e-30
1.000000e-30
1.000000e-30
1.000000e-30
1.000000e-30
1.000000e-30
1.000000e-30
1.000000e-30
1.000000e-30
1.000000e-30
1.000000e-30
1.000000e-30
1.000000e-30
1.000000e-30
1.000000e-30
1.000000e-30
1.000000e-30
1.000000e-30
1.000000e-30
1.000000e-30
1.000000e-30
1.000000e-30
1.000000e-30
1.000000e-30
1.000000e-30
1.000000e-30
1.000000e-30
1.000000e-30
1.000000e-30
1.000000e-30
1.000000e-30
1.000000e-30
1.000000e-30
1.000000e-30
1.000000e-30
1.000000e-30
1.000000e-30
1.000000e-30
1.000000e-30
1.000000e-30
1.000000e-30
1.000000e-30
1.000000e-30
1.000000e-30
1.000000e-30
1.000000e-30
1.000000e-30
1.000000e-30
1.000000e-30
1.000000e-30
1.000000e-30
1.000000e-30
1.000000e-30
1.000000e-30
1.000000e-30
1.000000e-30
1.000000e-30
1.000000e-30
1.000000e-30
1.000000e-30
1.000000e-30
1.000000e-30
1.000000e-30
1.000000e-30
1.000000e-30
1.000000e-30
1.000000e-30
1.000000e-30
1.000000e-30
1.000000e-30
1.000000e-30
1.000000e-30
1.000000e-30
1.000000e-30
1.000000e-30
1.000000e-30
1.000000e-30
1.000000e-30
1.000000e-30
1.000000e-30
1.000000e-30
1.000000e-30
1.000000e-30
1.000000e-30
1.000000e-30
1.000000e-30
1.000000e-30
1.000000e-30
1.000000e-30
1.000000e-30
1.000000e-30
1.000000e-30
1.000000e-30
1.000000e-30
1.000000e-30
1.000000e-30
1.000000e-30
1.000000e-30
1.000000e-30
1.000000e-30
1.000000e-30
1.000000e-30
1.000000e-30
1.000000e-30
1.000000e-30
1.000000e-30
1.000000e-30
1.000000e-30
1.000000e-30
1.000000e-30
1.000000e-30
1.000000e-30
1.000000e-30
1.000000e-30
1.000000e-30
1.000000e-30
1.000000e-30
1.000000e-30
1.000000e-30
1.000000e-30
1.000000e-30
1.000000e-30
1.000000e-30
1.000000e-30
1.000000e-30
1.000000e-30
1.000000e-30
1.000000e-30
1.000000e-30
1.000000e-30
1.000000e-30
1.000000e-30
1.000000e-30
1.000000e-30
1.000000e-30
1.000000e-30
1.000000e-30
1.000000e-30
1.000000e-30
1.000000e-30
1.000000e-30
1.000000e-30
1.000000e-30
1.000000e-30
1.000000e-30
1.000000e-30
1.000000e-30
1.000000e-30
1.000000e-30
1.000000e-30
1.000000e-30
1.000000e-30
1.000000e-30
1.000000e-30
1.000000e-30
1.000000e-30
1.000000e-30
1.000000e-30
1.000000e-30
1.000000e-30
1.000000e-30
1.000000e-30
1.000000e-30
1.000000e-30
1.000000e-30
1.000000e-30
1.000000e-30
1.000000e-30
1.000000e-30
1.000000e-30
1.000000e-30
1.000000e-30
1.000000e-30
1.000000e-30
1.000000e-30
1.000000e-30
1.000000e-30
1.000000e-30
1.000000e-30
1.000000e-30
1.000000e-30
1.000000e-30
1.000000e-30
1.000000e-30
1.000000e-30
1.000000e-30
1.000000e-30
1.000000e-30
1.000000e-30
1.000000e-30
1.000000e-30
1.000000e-30
1.000000e-30
1.000000e-30
1.000000e-30
1.000000e-30
1.000000e-30
1.000000e-30
1.000000e-30
1.000000e-30
1.000000e-30
1.000000e-30
1.000000e-30
1.000000e-30
1.000000e-30
1.000000e-30
1.000000e-30
1.000000e-30
1.000000e-30
1.000000e-30
1.000000e-30
1.000000e-30
1.000000e-30
1.000000e-30
1.000000e-30
1.000000e-30
1.000000e-30
1.000000e-30
1.000000e-30
1.000000e-30
1.000000e-30
1.000000e-30
1.000000e-30
1.000000e-30
1.000000e-30
1.000000e-30
1.000000e-30
1.000000e-30
1.000000e-30
1.000000e-30
1.000000e-30
1.000000e-30
1.000000e-30
1.000000e-30
1.000000e-30
1.000000e-30
1.000000e-30
1.000000e-30
1.000000e-30
1.000000e-30
1.000000e-30
1.000000e-30
1.000000e-30
1.000000e-30
1.000000e-30
1.000000e-30
1.000000e-30
1.000000e-30
1.000000e-30
1.000000e-30
1.000000e-30
1.000000e-30
1.000000e-30
1.000000e-30
1.000000e-30
1.000000e-30
1.000000e-30
1.000000e-30
1.000000e-30
1.000000e-30
1.000000e-30
1.000000e-30
1.000000e-30
1.000000e-30
1.000000e-30
1.000000e-30
1.000000e-30
1.000000e-30
1.000000e-30
1.000000e-30
1.000000e-30
1.000000e-30
1.000000e-30
1.000000e-30
1.000000e-30
1.000000e-30
1.000000e-30
1.000000e-30
1.000000e-30
1.000000e-30
1.000000e-30
1.000000e-30
1.000000e-30
1.000000e-30
1.000000e-30
1.000000e-30
1.000000e-30
1.000000e-30
1.000000e-30
1.000000e-30
1.000000e-30
1.000000e-30
1.000000e-30
1.000000e-30
1.000000e-30
SCALARS Mol_density float 1
LOOKUP_TABLE default
0.000000e+00
0.000000e+00
0.000000e+00
0.000000e+00
0.000000e+00
0.000000e+00
0.000000e+00
0.000000e+00
0.000000e+00
0.000000e+00
0.000000e+00
0.000000e+00
0.000000e+00
0.000000e+00
0.000000e+00
0.000000e+00
0.000000e+00
0.000000e+00
0.000000e+00
0.000000e+00
0.000000e+00
0.000000e+00
0.000000e+00
0.000000e+00
0.000000e+00
0.000000e+00
0.000000e+00
0.000000e+00
0.000000e+00