# vtk DataFile Version 3.0
Lime grid
ASCII
DATASET UNSTRUCTURED_GRID
POINTS 300 float
0.000000e+00 0.000000e+00 2.500000e+02
0.000000e+00 0.000000e+00 7.290610e+03
0.000000e+00 0.000000e+00 1.603056e+05
0.000000e+00 0.000000e+00 5.514084e+04
0.000000e+00 0.000000e+00 4.093789e+03
0.000000e+00 0.000000e+00 1.094785e+04
0.000000e+00 0.000000e+00 1.731141e+03
0.000000e+00 0.000000e+00 4.202576e+05
0.000000e+00 0.000000e+00 2.240849e+05
0.000000e+00 0.000000e+00 8.851210e+02
0.000000e+00 0.000000e+00 6.562675e+02
0.000000e+00 0.000000e+00 1.226576e+05
0.000000e+00 0.000000e+00 5.716520e+03
0.000000e+00 0.000000e+00 3.752091e+04
0.000000e+00 0.000000e+00 2.186237e+05
0.000000e+00 0.000000e+00 8.492567e+02
0.000000e+00 0.000000e+00 3.518928e+05
0.000000e+00 0.000000e+00 1.862798e+04
0.000000e+00 0.000000e+00 4.430556e+03
0.000000e+00 0.000000e+00 6.324120e+04
0.000000e+00 0.000000e+00 1.181014e+05
0.000000e+00 0.000000e+00 9.372003e+02
0.000000e+00 0.000000e+00 4.590001e+04
0.000000e+00 0.000000e+00 1.044824e+05
0.000000e+00 0.000000e+00 3.224141e+02
0.000000e+00 0.000000e+00 3.424709e+02
0.000000e+00 0.000000e+00 8.699688e+05
0.000000e+00 0.000000e+00 1.805413e+05
0.000000e+00 0.000000e+00 6.819039e+03
0.000000e+00 0.000000e+00 1.201764e+04
0.000000e+00 0.000000e+00 2.194806e+04
0.000000e+00 0.000000e+00 1.870067e+04
0.000000e+00 0.000000e+00 5.733131e+04
0.000000e+00 0.000000e+00 1.843441e+04
0.000000e+00 0.000000e+00 5.247248e+03
0.000000e+00 0.000000e+00 3.238394e+05
0.000000e+00 0.000000e+00 6.689990e+05
0.000000e+00 0.000000e+00 3.300785e+02
0.000000e+00 0.000000e+00 1.451515e+05
0.000000e+00 0.000000e+00 1.322187e+04
0.000000e+00 0.000000e+00 8.949237e+03
0.000000e+00 0.000000e+00 2.404482e+03
0.000000e+00 0.000000e+00 3.064789e+03
0.000000e+00 0.000000e+00 4.949104e+05
0.000000e+00 0.000000e+00 2.211350e+03
0.000000e+00 0.000000e+00 1.123421e+04
0.000000e+00 0.000000e+00 7.771355e+02
0.000000e+00 0.000000e+00 1.144940e+04
0.000000e+00 0.000000e+00 1.429799e+05
0.000000e+00 0.000000e+00 3.983047e+03
0.000000e+00 0.000000e+00 9.760252e+05
0.000000e+00 0.000000e+00 4.704971e+02
0.000000e+00 0.000000e+00 6.747218e+05
0.000000e+00 0.000000e+00 3.506505e+05
0.000000e+00 0.000000e+00 3.976225e+02
0.000000e+00 0.000000e+00 1.468526e+04
0.000000e+00 0.000000e+00 4.976710e+04
0.000000e+00 0.000000e+00 5.447721e+05
0.000000e+00 0.000000e+00 6.434687e+04
0.000000e+00 0.000000e+00 1.031970e+03
0.000000e+00 0.000000e+00 6.973336e+04
0.000000e+00 0.000000e+00 5.829740e+04
0.000000e+00 0.000000e+00 1.492037e+04
0.000000e+00 0.000000e+00 1.283070e+05
0.000000e+00 0.000000e+00 8.742594e+02
0.000000e+00 0.000000e+00 1.214342e+04
0.000000e+00 0.000000e+00 4.217226e+03
0.000000e+00 0.000000e+00 1.555334e+04
0.000000e+00 0.000000e+00 3.247662e+02
0.000000e+00 0.000000e+00 7.968227e+05
0.000000e+00 0.000000e+00 7.159591e+02
0.000000e+00 0.000000e+00 5.762257e+05
0.000000e+00 0.000000e+00 3.631396e+03
0.000000e+00 0.000000e+00 9.018716e+02
0.000000e+00 0.000000e+00 1.556465e+05
0.000000e+00 0.000000e+00 1.053308e+04
0.000000e+00 0.000000e+00 1.036381e+04
0.000000e+00 0.000000e+00 7.249880e+04
0.000000e+00 0.000000e+00 7.339853e+02
0.000000e+00 0.000000e+00 8.350094e+03
0.000000e+00 0.000000e+00 1.904649e+03
0.000000e+00 0.000000e+00 3.499534e+03
0.000000e+00 0.000000e+00 4.859581e+03
0.000000e+00 0.000000e+00 1.017401e+03
0.000000e+00 0.000000e+00 3.343198e+05
0.000000e+00 0.000000e+00 1.165447e+04
0.000000e+00 0.000000e+00 3.452196e+05
0.000000e+00 0.000000e+00 2.596210e+02
0.000000e+00 0.000000e+00 1.330624e+03
0.000000e+00 0.000000e+00 6.014486e+03
0.000000e+00 0.000000e+00 8.883465e+04
0.000000e+00 0.000000e+00 1.488694e+05
0.000000e+00 0.000000e+00 7.880523e+03
0.000000e+00 0.000000e+00 8.399734e+04
0.000000e+00 0.000000e+00 2.395614e+04
0.000000e+00 0.000000e+00 2.495553e+04
0.000000e+00 0.000000e+00 1.276198e+03
0.000000e+00 0.000000e+00 9.055692e+03
0.000000e+00 0.000000e+00 4.364493e+02
0.000000e+00 0.000000e+00 7.489014e+03
0.000000e+00 0.000000e+00 5.800258e+03
0.000000e+00 0.000000e+00 1.073277e+03
0.000000e+00 0.000000e+00 8.977470e+04
0.000000e+00 0.000000e+00 2.290069e+04
0.000000e+00 0.000000e+00 3.005873e+05
0.000000e+00 0.000000e+00 1.285606e+03
0.000000e+00 0.000000e+00 4.634448e+05
0.000000e+00 0.000000e+00 4.332367e+05
0.000000e+00 0.000000e+00 4.609019e+02
0.000000e+00 0.000000e+00 7.327312e+02
0.000000e+00 0.000000e+00 4.182820e+03
0.000000e+00 0.000000e+00 5.705671e+02
0.000000e+00 0.000000e+00 3.601112e+05
0.000000e+00 0.000000e+00 1.141501e+05
0.000000e+00 0.000000e+00 1.142971e+04
0.000000e+00 0.000000e+00 4.313598e+02
0.000000e+00 0.000000e+00 2.591090e+04
0.000000e+00 0.000000e+00 9.058503e+05
0.000000e+00 0.000000e+00 1.747431e+03
0.000000e+00 0.000000e+00 3.645240e+04
0.000000e+00 0.000000e+00 8.932713e+04
0.000000e+00 0.000000e+00 1.291953e+05
0.000000e+00 0.000000e+00 8.020882e+03
0.000000e+00 0.000000e+00 4.883597e+03
0.000000e+00 0.000000e+00 7.285349e+02
0.000000e+00 0.000000e+00 5.989872e+02
0.000000e+00 0.000000e+00 5.668732e+03
0.000000e+00 0.000000e+00 4.856898e+02
0.000000e+00 0.000000e+00 7.951690e+02
0.000000e+00 0.000000e+00 4.111770e+02
0.000000e+00 0.000000e+00 2.562464e+02
0.000000e+00 0.000000e+00 7.313562e+03
0.000000e+00 0.000000e+00 1.444546e+04
0.000000e+00 0.000000e+00 3.707308e+03
0.000000e+00 0.000000e+00 6.005427e+05
0.000000e+00 0.000000e+00 3.282162e+04
0.000000e+00 0.000000e+00 1.729314e+04
0.000000e+00 0.000000e+00 1.547530e+04
0.000000e+00 0.000000e+00 2.819640e+05
0.000000e+00 0.000000e+00 5.830906e+03
0.000000e+00 0.000000e+00 1.528125e+04
0.000000e+00 0.000000e+00 1.812027e+03
0.000000e+00 0.000000e+00 2.986366e+05
0.000000e+00 0.000000e+00 2.289876e+03
0.000000e+00 0.000000e+00 3.811404e+05
0.000000e+00 0.000000e+00 7.076760e+05
0.000000e+00 0.000000e+00 9.805402e+04
0.000000e+00 0.000000e+00 4.518784e+04
0.000000e+00 0.000000e+00 1.007756e+03
0.000000e+00 0.000000e+00 1.083886e+03
0.000000e+00 0.000000e+00 3.978990e+05
0.000000e+00 0.000000e+00 1.735161e+04
0.000000e+00 0.000000e+00 1.301466e+04
0.000000e+00 0.000000e+00 8.470210e+02
0.000000e+00 0.000000e+00 1.956771e+03
0.000000e+00 0.000000e+00 1.282986e+03
0.000000e+00 0.000000e+00 4.571522e+04
0.000000e+00 0.000000e+00 9.891272e+03
0.000000e+00 0.000000e+00 2.261920e+03
0.000000e+00 0.000000e+00 2.696369e+04
0.000000e+00 0.000000e+00 4.304289e+04
0.000000e+00 0.000000e+00 4.819681e+05
0.000000e+00 0.000000e+00 1.080734e+05
0.000000e+00 0.000000e+00 1.798974e+04
0.000000e+00 0.000000e+00 5.550572e+05
0.000000e+00 0.000000e+00 1.269573e+03
0.000000e+00 0.000000e+00 1.740536e+05
0.000000e+00 0.000000e+00 1.969040e+04
0.000000e+00 0.000000e+00 4.673505e+03
0.000000e+00 0.000000e+00 5.619370e+05
0.000000e+00 0.000000e+00 1.516551e+04
0.000000e+00 0.000000e+00 1.682275e+03
0.000000e+00 0.000000e+00 1.655851e+03
0.000000e+00 0.000000e+00 1.344086e+04
0.000000e+00 0.000000e+00 2.409492e+03
0.000000e+00 0.000000e+00 5.388385e+03
0.000000e+00 0.000000e+00 7.954513e+02
0.000000e+00 0.000000e+00 6.022082e+05
0.000000e+00 0.000000e+00 9.995166e+05
0.000000e+00 0.000000e+00 8.982278e+04
0.000000e+00 0.000000e+00 1.290952e+04
0.000000e+00 0.000000e+00 5.495042e+05
0.000000e+00 0.000000e+00 3.524410e+03
0.000000e+00 0.000000e+00 1.219823e+03
0.000000e+00 0.000000e+00 1.429583e+04
0.000000e+00 0.000000e+00 2.934022e+05
0.000000e+00 0.000000e+00 6.213647e+03
0.000000e+00 0.000000e+00 2.098846e+04
0.000000e+00 0.000000e+00 3.422708e+03
0.000000e+00 0.000000e+00 1.159532e+05
0.000000e+00 0.000000e+00 4.315145e+03
0.000000e+00 0.000000e+00 1.476319e+04
0.000000e+00 0.000000e+00 9.565880e+05
0.000000e+00 0.000000e+00 3.440874e+03
0.000000e+00 0.000000e+00 3.731409e+05
0.000000e+00 0.000000e+00 7.670008e+04
0.000000e+00 0.000000e+00 4.228951e+05
0.000000e+00 0.000000e+00 1.217731e+03
0.000000e+00 0.000000e+00 2.272410e+04
0.000000e+00 0.000000e+00 1.369037e+03
0.000000e+00 0.000000e+00 5.491932e+05
0.000000e+00 0.000000e+00 5.628872e+04
0.000000e+00 0.000000e+00 6.613739e+03
0.000000e+00 0.000000e+00 8.890174e+02
0.000000e+00 0.000000e+00 5.931154e+02
0.000000e+00 0.000000e+00 2.289193e+03
0.000000e+00 0.000000e+00 2.017960e+05
0.000000e+00 0.000000e+00 1.198543e+04
0.000000e+00 0.000000e+00 5.611639e+05
0.000000e+00 0.000000e+00 4.638711e+05
0.000000e+00 0.000000e+00 3.625837e+03
0.000000e+00 0.000000e+00 8.419175e+05
0.000000e+00 0.000000e+00 5.041331e+05
0.000000e+00 0.000000e+00 4.310411e+04
0.000000e+00 0.000000e+00 1.707322e+03
0.000000e+00 0.000000e+00 9.578770e+05
0.000000e+00 0.000000e+00 5.524659e+03
0.000000e+00 0.000000e+00 8.251488e+02
0.000000e+00 0.000000e+00 5.480087e+04
0.000000e+00 0.000000e+00 5.615555e+03
0.000000e+00 0.000000e+00 6.902193e+02
0.000000e+00 0.000000e+00 5.229012e+02
0.000000e+00 0.000000e+00 8.643509e+03
0.000000e+00 0.000000e+00 8.580973e+05
0.000000e+00 0.000000e+00 2.202528e+03
0.000000e+00 0.000000e+00 4.159945e+04
0.000000e+00 0.000000e+00 9.799238e+02
0.000000e+00 0.000000e+00 1.070812e+03
0.000000e+00 0.000000e+00 4.854090e+03
0.000000e+00 0.000000e+00 1.095394e+04
0.000000e+00 0.000000e+00 2.544268e+04
0.000000e+00 0.000000e+00 9.655391e+05
0.000000e+00 0.000000e+00 1.951666e+04
0.000000e+00 0.000000e+00 4.538710e+04
0.000000e+00 0.000000e+00 4.785400e+05
0.000000e+00 0.000000e+00 3.308254e+05
0.000000e+00 0.000000e+00 5.122039e+03
0.000000e+00 0.000000e+00 5.655531e+03
0.000000e+00 0.000000e+00 6.255738e+03
0.000000e+00 0.000000e+00 6.233238e+02
0.000000e+00 0.000000e+00 2.675343e+03
0.000000e+00 0.000000e+00 6.485631e+03
0.000000e+00 0.000000e+00 3.546463e+02
0.000000e+00 0.000000e+00 3.666702e+04
0.000000e+00 0.000000e+00 8.796130e+02
0.000000e+00 0.000000e+00 5.890813e+04
0.000000e+00 0.000000e+00 6.218637e+02
0.000000e+00 0.000000e+00 1.831572e+05
0.000000e+00 0.000000e+00 2.891277e+04
0.000000e+00 0.000000e+00 5.560906e+04
0.000000e+00 0.000000e+00 4.717799e+05
0.000000e+00 0.000000e+00 6.296080e+05
0.000000e+00 0.000000e+00 8.811054e+02
0.000000e+00 0.000000e+00 4.461970e+02
0.000000e+00 0.000000e+00 5.839004e+04
0.000000e+00 0.000000e+00 1.492731e+03
0.000000e+00 0.000000e+00 8.822510e+03
0.000000e+00 0.000000e+00 3.066310e+02
0.000000e+00 0.000000e+00 6.054898e+05
0.000000e+00 0.000000e+00 2.866506e+03
0.000000e+00 0.000000e+00 2.229392e+05
0.000000e+00 0.000000e+00 9.713473e+02
0.000000e+00 0.000000e+00 5.996794e+03
0.000000e+00 0.000000e+00 1.685630e+04
0.000000e+00 0.000000e+00 8.436086e+05
0.000000e+00 0.000000e+00 5.498060e+02
0.000000e+00 0.000000e+00 7.231524e+04
0.000000e+00 0.000000e+00 8.841586e+03
0.000000e+00 0.000000e+00 6.587366e+05
0.000000e+00 0.000000e+00 1.687158e+03
0.000000e+00 0.000000e+00 5.263423e+02
0.000000e+00 0.000000e+00 5.075953e+04
0.000000e+00 0.000000e+00 4.301485e+02
0.000000e+00 0.000000e+00 4.019806e+05
0.000000e+00 0.000000e+00 1.953844e+04
0.000000e+00 0.000000e+00 2.110591e+03
0.000000e+00 0.000000e+00 8.142871e+05
0.000000e+00 0.000000e+00 2.119073e+05
0.000000e+00 0.000000e+00 2.304300e+03
0.000000e+00 0.000000e+00 7.346708e+03
0.000000e+00 0.000000e+00 6.291045e+02
0.000000e+00 0.000000e+00 1.811024e+05
0.000000e+00 0.000000e+00 1.586854e+05
0.000000e+00 0.000000e+00 2.312254e+04
0.000000e+00 0.000000e+00 9.451246e+03
0.000000e+00 0.000000e+00 6.932990e+03
0.000000e+00 0.000000e+00 5.578461e+03
0.000000e+00 0.000000e+00 1.823761e+05
0.000000e+00 0.000000e+00 4.227613e+03
0.000000e+00 0.000000e+00 5.279279e+04
0.000000e+00 0.000000e+00 1.913670e+03
0.000000e+00 0.000000e+00 2.083219e+05
0.000000e+00 0.000000e+00 1.861853e+03
0.000000e+00 0.000000e+00 1.007928e+04
0.000000e+00 0.000000e+00 3.164643e+03
0.000000e+00 0.000000e+00 9.692422e+03
0.000000e+00 0.000000e+00 2.464281e+03
0.000000e+00 0.000000e+00 1.356103e+05
0.000000e+00 0.000000e+00 9.974420e+03
0.000000e+00 0.000000e+00 7.043709e+02


CELL_TYPES 0
POINT_DATA 300
SCALARS H2_density float 1
LOOKUP_TABLE default
1.591549e+20
1.871425e+17
3.870819e+14
3.271549e+15
5.935391e+17
8.299325e+16
3.319213e+18
5.632081e+13
1.980956e+14
1.269682e+19
2.309608e+19
6.611672e+14
3.043944e+17
7.065672e+15
2.081161e+14
1.379184e+19
8.033031e+13
2.866609e+16
5.067383e+17
2.487139e+15
7.131656e+14
1.132492e+19
4.721442e+15
9.112005e+14
9.569120e+19
8.481110e+19
1.314295e+13
3.051737e+14
2.139212e+17
6.887499e+16
2.064943e+16
2.844367e+16
3.026331e+15
2.927127e+16
3.612742e+17
9.485075e+13
2.222538e+13
9.129893e+19
4.721252e+14
5.690024e+16
1.242019e+17
1.720509e+18
1.059007e+18
4.061130e+13
2.034160e+18
7.881616e+16
1.647050e+19
7.588126e+16
4.865757e+14
6.270027e+17
1.044186e+13
4.493515e+19
2.184996e+13
8.090053e+13
6.291559e+19
4.612505e+16
4.016202e+15
3.351741e+13
2.402400e+15
9.340403e+18
2.045592e+15
2.926859e+15
4.468287e+16
6.042261e+14
1.301426e+19
6.745566e+16
5.593019e+17
4.111996e+16
9.431018e+19
1.566667e+13
1.940545e+19
2.995814e+13
7.543152e+17
1.222956e+19
4.106022e+14
8.965811e+16
9.261075e+16
1.892512e+15
1.846398e+19
1.426650e+17
2.742017e+18
8.122311e+17
4.212136e+17
9.609836e+18
8.899711e+13
7.323442e+16
8.346592e+13
1.475776e+20
5.618097e+18
2.749812e+17
1.260478e+15
4.488375e+14
1.601733e+17
1.409838e+15
1.733271e+16
1.597226e+16
6.107507e+18
1.212989e+17
5.221947e+19
1.773580e+17
2.956688e+17
8.635289e+18
1.234219e+15
1.896718e+16
1.100928e+14
6.018447e+18
4.631313e+13
5.299681e+13
4.682557e+19
1.852724e+19
5.685411e+17
3.055530e+19
7.670557e+13
7.633913e+14
7.614302e+16
5.345900e+19
1.481614e+16
1.212236e+13
3.257618e+18
7.485969e+15
1.246618e+15
5.959459e+14
1.546165e+17
4.170810e+17
1.874129e+19
2.772459e+19
3.095482e+17
4.216793e+19
1.573190e+19
5.883591e+19
1.514902e+20
1.859697e+17
4.766916e+16
7.237406e+17
2.758115e+13
9.233795e+15
3.326233e+16
4.153577e+16
1.251160e+14
2.925689e+17
4.259736e+16
3.029498e+18
1.115358e+14
1.897038e+18
6.847471e+13
1.986238e+13
1.034593e+15
4.871435e+15
9.794656e+18
8.467070e+18
6.282817e+13
3.303853e+16
5.872652e+16
1.386474e+19
2.597887e+18
6.043049e+18
4.759688e+15
1.016707e+17
1.944222e+18
1.368174e+16
5.369049e+15
4.282167e+13
8.516524e+14
3.073622e+16
3.228677e+13
6.171415e+18
3.283478e+14
2.565613e+16
4.554227e+17
3.150104e+13
4.324998e+16
3.514847e+18
3.627918e+18
5.506125e+16
1.713362e+18
3.425965e+17
1.572074e+19
2.742880e+13
9.956807e+12
1.232898e+15
5.968707e+16
3.294262e+13
8.008058e+17
6.685083e+18
4.867221e+16
1.155509e+14
2.576362e+17
2.258078e+16
8.491032e+17
7.398342e+14
5.342067e+17
4.563937e+16
1.087052e+13
8.401609e+17
7.144213e+13
1.690863e+15
5.562050e+13
6.708071e+18
1.926313e+16
5.307256e+18
3.297994e+13
3.139477e+15
2.274082e+17
1.258577e+19
2.827625e+19
1.898171e+18
2.442728e+14
6.924576e+16
3.158790e+13
4.622804e+13
7.566300e+17
1.403334e+13
3.913900e+13
5.353809e+15
3.412475e+18
1.084128e+13
3.259037e+17
1.460951e+19
3.312266e+15
3.154386e+17
2.087978e+19
3.637985e+19
1.331435e+17
1.350912e+13
2.050488e+18
5.748110e+15
1.035894e+19
8.675091e+18
4.221672e+17
8.290099e+16
1.536648e+16
1.066990e+13
2.611494e+16
4.828756e+15
4.343738e+13
9.088712e+13
3.791529e+17
3.109950e+17
2.541810e+17
2.560193e+19
1.389764e+18
2.364807e+17
7.908775e+19
7.398589e+15
1.285633e+19
2.866485e+15
2.572230e+19
2.965186e+14
1.189928e+16
3.216688e+15
4.469113e+13
2.509341e+13
1.281281e+19
4.996282e+19
2.917579e+15
4.464134e+18
1.277956e+17
1.057957e+20
2.713229e+13
1.210583e+18
2.001369e+14
1.054268e+19
2.766062e+17
3.500868e+16
1.397713e+13
3.290647e+19
1.902131e+15
1.272447e+17
2.292327e+13
3.494527e+18
3.590572e+19
3.860690e+15
5.376049e+19
6.155877e+13
2.605675e+16
2.233017e+18
1.500186e+13
2.215177e+14
1.873364e+18
1.842954e+17
2.513359e+19
3.032855e+14
3.950265e+14
1.860498e+16
1.113581e+17
2.069469e+17
3.196475e+17
2.990640e+14
5.565570e+17
3.569035e+15
2.716226e+18
2.292084e+14
2.869519e+18
9.791312e+16
9.932320e+17
1.058853e+17
1.638022e+18
5.408975e+14
9.998269e+16
2.004922e+19
SCALARS Mol_density float 1
LOOKUP_TABLE default
0.000000e+00
0.000000e+00
0.000000e+00
0.000000e+00
0.000000e+00
0.000000e+00
0.000000e+00
0.000000e+00
0.000000e+00
0.000000e+00
0.000000e+00
0.000000e+00
0.000000e+00
0.000000e+00
0.000000e+00
0.000000e+00
0.000000e+00
0.000000e+00
0.000000e+00
0.000000e+00
0.000000e+00
0.000000e+00
0.000000e+00
0.000000e+00
0.000000e+00
0.000000e+00
0.000000e+00
0.000000e+00
0.000000e+00
0.000000e+00
0.000000e+00
0.000000e+00
0.000000e+00
0.000000e+00
0.000000e+00
0.000000e+00
0.000000e+00
0.000000e+00
0.000000e+00
0.000000e+00
0.000000e+00
0.000000e+00
0.000000e+00
0.000000e+00
0.000000e+00
0.000000e+00
0.000000e+00
0.000000e+00
0.000000e+00
0.000000e+00
0.000000e+00
0.000000e+00
0.000000e+00
0.000000e+00
0.000000e+00
0.000000e+00
0.000000e+00
0.000000e+00
0.000000e+00
0.000000e+00
0.000000e+00
0.000000e+00
0.000000e+00
0.000000e+00
0.000000e+00
0.000000e+00
0.000000e+00
0.000000e+00
0.000000e+00
0.000000e+00
0.000000e+00
0.000000e+00
0.000000e+00
0.000000e+00
0.000000e+00
0.000000e+00
0.000000e+00
0.000000e+00
0.000000e+00
0.000000e+00
0.000000e+00
0.000000e+00
0.000000e+00
0.000000e+00
0.000000e+00
0.000000e+00
0.000000e+00
0.000000e+00
0.000000e+00
0.000000e+00
0.000000e+00
0.000000e+00
0.000000e+00
0.000000e+00
0.000000e+00
0.000000e+00
0.000000e+00
0.000000e+00
0.000000e+00
0.000000e+00
0.000000e+00
0.000000e+00
0.000000e+00
0.000000e+00
0.000000e+00
0.000000e+00
0.000000e+00
0.000000e+00
0.000000e+00
0.000000e+00
0.000000e+00
0.000000e+00
0.000000e+00
0.000000e+00
0.000000e+00
0.000000e+00
0.000000e+00
0.000000e+00
0.000000e+00
0.000000e+00
0.000000e+00
0.000000e+00
0.000000e+00
0.000000e+00
0.000000e+00
0.000000e+00
0.000000e+00
0.000000e+00
0.000000e+00
0.000000e+00
0.000000e+00
0.000000e+00
0.000000e+00
0.000000e+00
0.000000e+00
0.000000e+00
0.000000e+00
0.000000e+00
0.000000e+00
0.000000e+00
0.000000e+00
0.000000e+00
0.000000e+00
0.000000e+00
0.000000e+00
0.000000e+00
0.000000e+00
0.000000e+00
0.000000e+00
0.000000e+00
0.000000e+00
0.000000e+00
0.000000e+00
0.000000e+00
0.000000e+00
0.000000e+00
0.000000e+00
0.000000e+00
0.000000e+00
0.000000e+00
0.000000e+00
0.000000e+00
0.000000e+00
0.000000e+00
0.000000e+00
0.000000e+00
0.000000e+00
0.000000e+00
0.000000e+00
0.000000e+00
0.000000e+00
0.000000e+00
0.000000e+00
0.000000e+00
0.000000e+00
0.000000e+00
0.000000e+00
0.000000e+00
0.000000e+00
0.000000e+00
0.000000e+00
0.000000e+00
0.000000e+00
0.000000e+00
0.000000e+00
0.000000e+00
0.000000e+00
0.000000e+00
0.000000e+00
0.000000e+00
0.000000e+00
0.000000e+00
0.000000e+00
0.000000e+00
0.000000e+00
0.000000e+00
0.000000e+00
0.000000e+00
0.000000e+00
0.000000e+00
0.000000e+00
0.000000e+00
0.000000e+00
0.000000e+00
0.000000e+00
0.000000e+00
0.000000e+00
0.000000e+00
0.000000e+00
0.000000e+00
0.000000e+00
0.000000e+00
0.000000e+00
0.000000e+00
0.000000e+00
0.000000e+00
0.000000e+00
0.000000e+00
0.000000e+00
0.000000e+00
0.000000e+00
0.000000e+00
0.000000e+00
0.000000e+00
0.000000e+00
0.000000e+00
0.000000e+00
0.000000e+00
0.000000e+00
0.000000e+00
0.000000e+00
0.000000e+00
0.000000e+00
0.000000e+00
0.000000e+00
0.000000e+00
0.000000e+00
0.000000e+00
0.000000e+00
0.000000e+00
0.000000e+00
0.000000e+00
0.000000e+00
0.000000e+00
0.000000e+00
0.000000e+00
0.000000e+00
0.000000e+00
0.000000e+00
0.000000e+00
0.000000e+00
0.000000e+00
0.000000e+00
0.000000e+00
0.000000e+00
0.000000e+00
0.000000e+00
0.000000e+00
0.000000e+00
0.000000e+00
0.000000e+00
0.000000e+00
0.000000e+00
0.000000e+00
0.000000e+00
0.000000e+00
0.000000e+00
0.000000e+00
0.000000e+00
0.000000e+00
0.000000e+00
0.000000e+00
0.000000e+00
0.000000e+00
0.000000e+00
0.000000e+00
0.000000e+00
0.000000e+00
0.000000e+00
0.000000e+00
0.000000e+00
0.000000e+00
0.000000e+00
0.000000e+00
0.000000e+00
0.000000e+00
0.000000e+00
0.000000e+00
0.000000e+00
0.000000e+00
0.000000e+00
0.000000e+00
0.000000e+00
0.000000e+00
0.000000e+00
0.000000e+00
0.000000e+00
0.000000e+00
0.000000e+00
0.000000e+00
SCALARS Gas_temperature float 1
LOOKUP_TABLE default
5.000000e+01
5.000000e+01
5.000000e+01
5.000000e+01
5.000000e+01
5.000000e+01
5.000000e+01
5.000000e+01
5.000000e+01
5.000000e+01
5.000000e+01
5.000000e+01
5.000000e+01
5.000000e+01
5.000000e+01
5.000000e+01
5.000000e+01
5.000000e+01
5.000000e+01
5.000000e+01
5.000000e+01
5.000000e+01
5.000000e+01
5.000000e+01
5.000000e+01
5.000000e+01
5.000000e+01
5.000000e+01
5.000000e+01
5.000000e+01
5.000000e+01
5.000000e+01
5.000000e+01
5.000000e+01
5.000000e+01
5.000000e+01
5.000000e+01
5.000000e+01
5.000000e+01
5.000000e+01
5.000000e+01
5.000000e+01
5.000000e+01
5.000000e+01
5.000000e+01
5.000000e+01
5.000000e+01
5.000000e+01
5.000000e+01
5.000000e+01
5.000000e+01
5.000000e+01
5.000000e+01
5.000000e+01
5.000000e+01
5.000000e+01
5.000000e+01
5.000000e+01
5.000000e+01
5.000000e+01
5.000000e+01
5.000000e+01
5.000000e+01
5.000000e+01
5.000000e+01
5.000000e+01
5.000000e+01
5.000000e+01
5.000000e+01
5.000000e+01
5.000000e+01
5.000000e+01
5.000000e+01
5.000000e+01
5.000000e+01
5.000000e+01
5.000000e+01
5.000000e+01
5.000000e+01
5.000000e+01
5.000000e+01
5.000000e+01
5.000000e+01
5.000000e+01
5.000000e+01
5.000000e+01
5.000000e+01
5.000000e+01
5.000000e+01
5.000000e+01
5.000000e+01
5.000000e+01
5.000000e+01
5.000000e+01
5.000000e+01
5.000000e+01
5.000000e+01
5.000000e+01
5.000000e+01
5.000000e+01
5.000000e+01
5.000000e+01
5.000000e+01
5.000000e+01
5.000000e+01
5.000000e+01
5.000000e+01
5.000000e+01
5.000000e+01
5.000000e+01
5.000000e+01
5.000000e+01
5.000000e+01
5.000000e+01
5.000000e+01
5.000000e+01
5.000000e+01
5.000000e+01
5.000000e+01
5.000000e+01
5.000000e+01
5.000000e+01
5.000000e+01
5.000000e+01
5.000000e+01
5.000000e+01
5.000000e+01
5.000000e+01
5.000000e+01
5.000000e+01
5.000000e+01
5.000000e+01
5.000000e+01
5.000000e+01
5.000000e+01
5.000000e+01
5.000000e+01
5.000000e+01
5.000000e+01
5.000000e+01
5.000000e+01
5.000000e+01
5.000000e+01
5.000000e+01
5.000000e+01
5.000000e+01
5.000000e+01
5.000000e+01
5.000000e+01
5.000000e+01
5.000000e+01
5.000000e+01
5.000000e+01
5.000000e+01
5.000000e+01
5.000000e+01
5.000000e+01
5.000000e+01
5.000000e+01
5.000000e+01
5.000000e+01
5.000000e+01
5.000000e+01
5.000000e+01
5.000000e+01
5.000000e+01
5.000000e+01
5.000000e+01
5.000000e+01
5.000000e+01
5.000000e+01
5.000000e+01
5.000000e+01
5.000000e+01
5.000000e+01
5.000000e+01
5.000000e+01
5.000000e+01
5.000000e+01
5.000000e+01
5.000000e+01
5.000000e+01
5.000000e+01
5.000000e+01
5.000000e+01
5.000000e+01
5.000000e+01
5.000000e+01
5.000000e+01
5.000000e+01
5.000000e+01
5.000000e+01
5.000000e+01
5.000000e+01
5.000000e+01
5.000000e+01
5.000000e+01
5.000000e+01
5.000000e+01
5.000000e+01
5.000000e+01
5.000000e+01
5.000000e+01
5.000000e+01
5.000000e+01
5.000000e+01
5.000000e+01
5.000000e+01
5.000000e+01
5.000000e+01
5.000000e+01
5.000000e+01
5.000000e+01
5.000000e+01
5.000000e+01
5.000000e+01
5.000000e+01
5.000000e+01
5.000000e+01
5.000000e+01
5.000000e+01
5.000000e+01
5.000000e+01
5.000000e+01
5.000000e+01
5.000000e+01
5.000000e+01
5.000000e+01
5.000000e+01
5.000000e+01
5.000000e+01
5.000000e+01
5.000000e+01
5.000000e+01
5.000000e+01
5.000000e+01
5.000000e+01
5.000000e+01
5.000000e+01
5.000000e+01
5.000000e+01
5.000000e+01
5.000000e+01
5.000000e+01
5.000000e+01
5.000000e+01
5.000000e+01
5.000000e+01
5.000000e+01
5.000000e+01
5.000000e+01
5.000000e+01
5.000000e+01
5.000000e+01
5.000000e+01
5.000000e+01
5.000000e+01
5.000000e+01
5.000000e+01
5.000000e+01
5.000000e+01
5.000000e+01
5.000000e+01
5.000000e+01
5.000000e+01
5.000000e+01
5.000000e+01
5.000000e+01
5.000000e+01
5.000000e+01
5.000000e+01
5.000000e+01
5.000000e+01
5.000000e+01
5.000000e+01
5.000000e+01
5.000000e+01
5.000000e+01
5.000000e+01
5.000000e+01
5.000000e+01
5.000000e+01
5.000000e+01
5.000000e+01
5.000000e+01
5.000000e+01
5.000000e+01
5.000000e+01
5.000000e+01
5.000000e+01
5.000000e+01
5.000000e+01
5.000000e+01
5.000000e+01
5.000000e+01
5.000000e+01
5.000000e+01
5.000000e+01
5.000000e+01
5.000000e+01
VECTORS velocity float
0.000000e+00 0.000000e+00 1.000000e+00
0.000000e+00 0.000000e+00 1.000000e+00
0.000000e+00 0.000000e+00 1.000000e+00
0.000000e+00 0.000000e+00 1.000000e+00
0.000000e+00 0.000000e+00 1.000000e+00
0.000000e+00 0.000000e+00 1.000000e+00
0.000000e+00 0.000000e+00 1.000000e+00
0.000000e+00 0.000000e+00 1.000000e+00
0.000000e+00 0.000000e+00 1.000000e+00
0.000000e+00 0.000000e+00 1.000000e+00
0.000000e+00 0.000000e+00 1.000000e+00
0.000000e+00 0.000000e+00 1.000000e+00
0.000000e+00 0.000000e+00 1.000000e+00
0.000000e+00 0.000000e+00 1.000000e+00
0.000000e+00 0.000000e+00 1.000000e+00
0.000000e+00 0.000000e+00 1.000000e+00
0.000000e+00 0.000000e+00 1.000000e+00
0.000000e+00 0.000000e+00 1.000000e+00
0.000000e+00 0.000000e+00 1.000000e+00
0.000000e+00 0.000000e+00 1.000000e+00
0.000000e+00 0.000000e+00 1.000000e+00
0.000000e+00 0.000000e+00 1.000000e+00
0.000000e+00 0.000000e+00 1.000000e+00
0.000000e+00 0.000000e+00 1.000000e+00
0.000000e+00 0.000000e+00 1.000000e+00
0.000000e+00 0.000000e+00 1.000000e+00
0.000000e+00 0.000000e+00 1.000000e+00
0.000000e+00 0.000000e+00 1.000000e+00
0.000000e+00 0.000000e+00 1.000000e+00
0.000000e+00 0.000000e+00 1.000000e+00
0.000000e+00 0.000000e+00 1.000000e+00
0.000000e+00 0.000000e+00 1.000000e+00
0.000000e+00 0.000000e+00 1.000000e+00
0.000000e+00 0.000000e+00 1.000000e+00
0.000000e+00 0.000000e+00 1.000000e+00
0.000000e+00 0.000000e+00 1.000000e+00
0.000000e+00 0.000000e+00 1.000000e+00
0.000000e+00 0.000000e+00 1.000000e+00
0.000000e+00 0.000000e+00 1.000000e+00
0.000000e+00 0.000000e+00 1.000000e+00
0.000000e+00 0.000000e+00 1.000000e+00
0.000000e+00 0.000000e+00 1.000000e+00
0.000000e+00 0.000000e+00 1.000000e+00
0.000000e+00 0.000000e+00 1.000000e+00
0.000000e+00 0.000000e+00 1.000000e+00
0.000000e+00 0.000000e+00 1.000000e+00
0.000000e+00 0.000000e+00 1.000000e+00
0.000000e+00 0.000000e+00 1.000000e+00
0.000000e+00 0.000000e+00 1.000000e+00
0.000000e+00 0.000000e+00 1.000000e+00
0.000000e+00 0.000000e+00 1.000000e+00
0.000000e+00 0.000000e+00 1.000000e+00
0.000000e+00 0.000000e+00 1.000000e+00
0.000000e+00 0.000000e+00 1.000000e+00
0.000000e+00 0.000000e+00 1.000000e+00
0.000000e+00 0.000000e+00 1.000000e+00
0.000000e+00 0.000000e+00 1.000000e+00
0.000000e+00 0.000000e+00 1.000000e+00
0.000000e+00 0.000000e+00 1.000000e+00
0.000000e+00 0.000000e+00 1.000000e+00
0.000000e+00 0.000000e+00 1.000000e+00
0.000000e+00 0.000000e+00 1.000000e+00
0.000000e+00 0.000000e+00 1.000000e+00
0.000000e+00 0.000000e+00 1.000000e+00
0.000000e+00 0.000000e+00 1.000000e+00
0.000000e+00 0.000000e+00 1.000000e+00
0.000000e+00 0.000000e+00 1.000000e+00
0.000000e+00 0.000000e+00 1.000000e+00
0.000000e+00 0.000000e+00 1.000000e+00
0.000000e+00 0.000000e+00 1.000000e+00
0.000000e+00 0.000000e+00 1.000000e+00
0.000000e+00 0.000000e+00 1.000000e+00
0.000000e+00 0.000000e+00 1.000000e+00
0.000000e+00 0.000000e+00 1.000000e+00
0.000000e+00 0.000000e+00 1.000000e+00
0.000000e+00 0.000000e+00 1.000000e+00
0.000000e+00 0.000000e+00 1.000000e+00
0.000000e+00 0.000000e+00 1.000000e+00
0.000000e+00 0.000000e+00 1.000000e+00
0.000000e+00 0.000000e+00 1.000000e+00
0.000000e+00 0.000000e+00 1.000000e+00
0.000000e+00 0.000000e+00 1.000000e+00
0.000000e+00 0.000000e+00 1.000000e+00
0.000000e+00 0.000000e+00 1.000000e+00
0.000000e+00 0.000000e+00 1.000000e+00
0.000000e+00 0.000000e+00 1.000000e+00
0.000000e+00 0.000000e+00 1.000000e+00
0.000000e+00 0.000000e+00 1.000000e+00
0.000000e+00 0.000000e+00 1.000000e+00
0.000000e+00 0.000000e+00 1.000000e+00
0.000000e+00 0.000000e+00 1.000000e+00
0.000000e+00 0.000000e+00 1.000000e+00
0.000000e+00 0.000000e+00 1.000000e+00
0.000000e+00 0.000000e+00 1.000000e+00
0.000000e+00 0.000000e+00 1.000000e+00
0.000000e+00 0.000000e+00 1.000000e+00
0.000000e+00 0.000000e+00 1.000000e+00
0.000000e+00 0.000000e+00 1.000000e+00
0.000000e+00 0.000000e+00 1.000000e+00
0.000000e+00 0.000000e+00 1.000000e+00
0.000000e+00 0.000000e+00 1.000000e+00
0.000000e+00 0.000000e+00 1.000000e+00
0.000000e+00 0.000000e+00 1.000000e+00
0.000000e+00 0.000000e+00 1.000000e+00
0.000000e+00 0.000000e+00 1.000000e+00
0.000000e+00 0.000000e+00 1.000000e+00
0.000000e+00 0.000000e+00 1.000000e+00
0.000000e+00 0.000000e+00 1.000000e+00
0.000000e+00 0.000000e+00 1.000000e+00
0.000000e+00 0.000000e+00 1.000000e+00
0.000000e+00 0.000000e+00 1.000000e+00
0.000000e+00 0.000000e+00 1.000000e+00
0.000000e+00 0.000000e+00 1.000000e+00
0.000000e+00 0.000000e+00 1.000000e+00
0.000000e+00 0.000000e+00 1.000000e+00
0.000000e+00 0.000000e+00 1.000000e+00
0.000000e+00 0.000000e+00 1.000000e+00
0.000000e+00 0.000000e+00 1.000000e+00
0.000000e+00 0.000000e+00 1.000000e+00
0.000000e+00 0.000000e+00 1.000000e+00
0.000000e+00 0.000000e+00 1.000000e+00
0.000000e+00 0.000000e+00 1.000000e+00
0.000000e+00 0.000000e+00 1.000000e+00
0.000000e+00 0.000000e+00 1.000000e+00
0.000000e+00 0.000000e+00 1.000000e+00
0.000000e+00 0.000000e+00 1.000000e+00
0.000000e+00 0.000000e+00 1.000000e+00
0.000000e+00 0.000000e+00 1.000000e+00
0.000000e+00 0.000000e+00 1.000000e+00
0.000000e+00 0.000000e+00 1.000000e+00
0.000000e+00 0.000000e+00 1.000000e+00
0.000000e+00 0.000000e+00 1.000000e+00
0.000000e+00 0.000000e+00 1.000000e+00
0.000000e+00 0.000000e+00 1.000000e+00
0.000000e+00 0.000000e+00 1.000000e+00
0.000000e+00 0.000000e+00 1.000000e+00
0.000000e+00 0.000000e+00 1.000000e+00
0.000000e+00 0.000000e+00 1.000000e+00
0.000000e+00 0.000000e+00 1.000000e+00
0.000000e+00 0.000000e+00 1.000000e+00
0.000000e+00 0.000000e+00 1.000000e+00
0.000000e+00 0.000000e+00 1.000000e+00
0.000000e+00 0.000000e+00 1.000000e+00
0.000000e+00 0.000000e+00 1.000000e+00
0.000000e+00 0.000000e+00 1.000000e+00
0.000000e+00 0.000000e+00 1.000000e+00
0.000000e+00 0.000000e+00 1.000000e+00
0.000000e+00 0.000000e+00 1.000000e+00
0.000000e+00 0.000000e+00 1.000000e+00
0.000000e+00 0.000000e+00 1.000000e+00
0.000000e+00 0.000000e+00 1.000000e+00
0.000000e+00 0.000000e+00 1.000000e+00
0.000000e+00 0.000000e+00 1.000000e+00
0.000000e+00 0.000000e+00 1.000000e+00
0.000000e+00 0.000000e+00 1.000000e+00
0.000000e+00 0.000000e+00 1.000000e+00
0.000000e+00 0.000000e+00 1.000000e+00
0.000000e+00 0.000000e+00 1.000000e+00
0.000000e+00 0.000000e+00 1.000000e+00
0.000000e+00 0.000000e+00 1.000000e+00
0.000000e+00 0.000000e+00 1.000000e+00