# vtk DataFile Version 3.0
Lime grid
ASCII
DATASET UNSTRUCTURED_GRID
POINTS 500 float
0.000000e+00 0.000000e+00 2.500000e+02
0.000000e+00 0.000000e+00 6.287923e+04
0.000000e+00 0.000000e+00 9.956169e+06
0.000000e+00 0.000000e+00 1.731987e+06
0.000000e+00 0.000000e+00 2.442072e+04
0.000000e+00 0.000000e+00 1.224231e+05
0.000000e+00 0.000000e+00 5.959134e+03
0.000000e+00 0.000000e+00 4.831075e+07
0.000000e+00 0.000000e+00 1.723773e+07
0.000000e+00 0.000000e+00 1.984948e+03
0.000000e+00 0.000000e+00 1.215716e+03
0.000000e+00 0.000000e+00 6.420573e+06
0.000000e+00 0.000000e+00 4.220814e+04
0.000000e+00 0.000000e+00 9.215855e+05
0.000000e+00 0.000000e+00 1.655463e+07
0.000000e+00 0.000000e+00 1.854855e+03
0.000000e+00 0.000000e+00 3.611462e+07
0.000000e+00 0.000000e+00 2.925240e+05
0.000000e+00 0.000000e+00 2.779863e+04
0.000000e+00 0.000000e+00 2.168191e+06
0.000000e+00 0.000000e+00 6.034378e+06
0.000000e+00 0.000000e+00 2.179919e+03
0.000000e+00 0.000000e+00 1.282319e+06
0.000000e+00 0.000000e+00 4.936607e+06
0.000000e+00 0.000000e+00 3.793027e+02
0.000000e+00 0.000000e+00 4.187343e+02
0.000000e+00 0.000000e+00 1.591798e+08
0.000000e+00 0.000000e+00 1.209764e+07
0.000000e+00 0.000000e+00 5.635275e+04
0.000000e+00 0.000000e+00 1.426329e+05
0.000000e+00 0.000000e+00 3.827315e+05
0.000000e+00 0.000000e+00 2.943970e+05
0.000000e+00 0.000000e+00 1.846167e+06
0.000000e+00 0.000000e+00 2.875589e+05
0.000000e+00 0.000000e+00 3.668025e+04
0.000000e+00 0.000000e+00 3.151764e+07
0.000000e+00 0.000000e+00 1.034989e+08
0.000000e+00 0.000000e+00 3.941913e+02
0.000000e+00 0.000000e+00 8.460872e+06
0.000000e+00 0.000000e+00 1.667966e+05
0.000000e+00 0.000000e+00 8.798276e+04
0.000000e+00 0.000000e+00 1.020994e+04
0.000000e+00 0.000000e+00 1.519566e+04
0.000000e+00 0.000000e+00 6.315639e+07
0.000000e+00 0.000000e+00 8.900811e+03
0.000000e+00 0.000000e+00 1.277146e+05
0.000000e+00 0.000000e+00 1.603787e+03
0.000000e+00 0.000000e+00 1.317483e+05
0.000000e+00 0.000000e+00 8.254419e+06
0.000000e+00 0.000000e+00 2.334749e+04
0.000000e+00 0.000000e+00 1.922023e+08
0.000000e+00 0.000000e+00 7.046686e+02
0.000000e+00 0.000000e+00 1.049538e+08
0.000000e+00 0.000000e+00 3.590590e+07
0.000000e+00 0.000000e+00 5.348239e+02
0.000000e+00 0.000000e+00 1.981063e+05
0.000000e+00 0.000000e+00 1.464087e+06
0.000000e+00 0.000000e+00 7.391564e+07
0.000000e+00 0.000000e+00 2.230661e+06
0.000000e+00 0.000000e+00 2.552699e+03
0.000000e+00 0.000000e+00 2.544776e+06
0.000000e+00 0.000000e+00 1.897423e+06
0.000000e+00 0.000000e+00 2.033305e+05
0.000000e+00 0.000000e+00 6.912294e+06
0.000000e+00 0.000000e+00 1.945186e+03
0.000000e+00 0.000000e+00 1.450874e+05
0.000000e+00 0.000000e+00 2.563903e+04
0.000000e+00 0.000000e+00 2.176575e+05
0.000000e+00 0.000000e+00 3.838479e+02
0.000000e+00 0.000000e+00 1.378417e+08
0.000000e+00 0.000000e+00 1.402139e+03
0.000000e+00 0.000000e+00 8.103768e+07
0.000000e+00 0.000000e+00 2.006576e+04
0.000000e+00 0.000000e+00 2.046880e+03
0.000000e+00 0.000000e+00 9.486379e+06
0.000000e+00 0.000000e+00 1.149145e+05
0.000000e+00 0.000000e+00 1.119037e+05
0.000000e+00 0.000000e+00 2.712248e+06
0.000000e+00 0.000000e+00 1.460457e+03
0.000000e+00 0.000000e+00 7.853770e+04
0.000000e+00 0.000000e+00 6.968914e+03
0.000000e+00 0.000000e+00 1.888560e+04
0.000000e+00 0.000000e+00 3.234494e+04
0.000000e+00 0.000000e+00 2.493904e+03
0.000000e+00 0.000000e+00 3.320645e+07
0.000000e+00 0.000000e+00 1.356374e+05
0.000000e+00 0.000000e+00 3.499907e+07
0.000000e+00 0.000000e+00 2.659599e+02
0.000000e+00 0.000000e+00 3.871728e+03
0.000000e+00 0.000000e+00 4.587326e+04
0.000000e+00 0.000000e+00 3.784050e+06
0.000000e+00 0.000000e+00 8.818929e+06
0.000000e+00 0.000000e+00 7.143063e+04
0.000000e+00 0.000000e+00 3.452281e+06
0.000000e+00 0.000000e+00 4.417768e+05
0.000000e+00 0.000000e+00 4.723804e+05
0.000000e+00 0.000000e+00 3.615606e+03
0.000000e+00 0.000000e+00 8.970442e+04
0.000000e+00 0.000000e+00 6.230484e+02
0.000000e+00 0.000000e+00 6.570781e+04
0.000000e+00 0.000000e+00 4.322613e+04
0.000000e+00 0.000000e+00 2.722276e+03
0.000000e+00 0.000000e+00 3.849895e+06
0.000000e+00 0.000000e+00 4.103311e+05
0.000000e+00 0.000000e+00 2.789480e+07
0.000000e+00 0.000000e+00 3.659389e+03
0.000000e+00 0.000000e+00 5.671061e+07
0.000000e+00 0.000000e+00 5.077990e+07
0.000000e+00 0.000000e+00 6.812713e+02
0.000000e+00 0.000000e+00 1.456370e+03
0.000000e+00 0.000000e+00 2.529712e+04
0.000000e+00 0.000000e+00 9.665734e+02
0.000000e+00 0.000000e+00 3.750716e+07
0.000000e+00 0.000000e+00 5.707074e+06
0.000000e+00 0.000000e+00 1.313770e+05
0.000000e+00 0.000000e+00 6.111860e+02
0.000000e+00 0.000000e+00 5.023774e+05
0.000000e+00 0.000000e+00 1.700802e+08
0.000000e+00 0.000000e+00 6.051304e+03
0.000000e+00 0.000000e+00 8.789680e+05
0.000000e+00 0.000000e+00 3.818490e+06
0.000000e+00 0.000000e+00 6.990893e+06
0.000000e+00 0.000000e+00 7.352744e+04
0.000000e+00 0.000000e+00 3.260731e+04
0.000000e+00 0.000000e+00 1.442726e+03
0.000000e+00 0.000000e+00 1.046722e+03
0.000000e+00 0.000000e+00 4.163144e+04
0.000000e+00 0.000000e+00 7.423414e+02
0.000000e+00 0.000000e+00 1.665228e+03
0.000000e+00 0.000000e+00 5.650260e+02
0.000000e+00 0.000000e+00 2.603181e+02
0.000000e+00 0.000000e+00 6.320396e+04
0.000000e+00 0.000000e+00 1.928325e+05
0.000000e+00 0.000000e+00 2.075775e+04
0.000000e+00 0.000000e+00 8.671728e+07
0.000000e+00 0.000000e+00 7.401145e+05
0.000000e+00 0.000000e+00 2.589649e+05
0.000000e+00 0.000000e+00 2.158704e+05
0.000000e+00 0.000000e+00 2.511899e+07
0.000000e+00 0.000000e+00 4.360106e+04
0.000000e+00 0.000000e+00 2.114522e+05
0.000000e+00 0.000000e+00 6.422208e+03
0.000000e+00 0.000000e+00 2.759875e+07
0.000000e+00 0.000000e+00 9.424645e+03
0.000000e+00 0.000000e+00 4.116310e+07
0.000000e+00 0.000000e+00 1.134847e+08
0.000000e+00 0.000000e+00 4.448708e+06
0.000000e+00 0.000000e+00 1.249875e+06
0.000000e+00 0.000000e+00 2.455278e+03
0.000000e+00 0.000000e+00 2.766514e+03
0.000000e+00 0.000000e+00 4.417067e+07
0.000000e+00 0.000000e+00 2.604014e+05
0.000000e+00 0.000000e+00 1.625342e+05
0.000000e+00 0.000000e+00 1.846860e+03
0.000000e+00 0.000000e+00 7.284170e+03
0.000000e+00 0.000000e+00 3.647177e+03
0.000000e+00 0.000000e+00 1.273870e+06
0.000000e+00 0.000000e+00 1.036646e+05
0.000000e+00 0.000000e+00 9.236814e+03
0.000000e+00 0.000000e+00 5.362612e+05
0.000000e+00 0.000000e+00 1.154130e+06
0.000000e+00 0.000000e+00 6.047242e+07
0.000000e+00 0.000000e+00 5.217703e+06
0.000000e+00 0.000000e+00 2.762792e+05
0.000000e+00 0.000000e+00 7.621638e+07
0.000000e+00 0.000000e+00 3.584898e+03
0.000000e+00 0.000000e+00 1.139342e+07
0.000000e+00 0.000000e+00 3.203599e+05
0.000000e+00 0.000000e+00 3.034020e+04
0.000000e+00 0.000000e+00 7.777065e+07
0.000000e+00 0.000000e+00 2.088341e+05
0.000000e+00 0.000000e+00 5.685957e+03
0.000000e+00 0.000000e+00 5.540333e+03
0.000000e+00 0.000000e+00 1.713478e+05
0.000000e+00 0.000000e+00 1.024483e+04
0.000000e+00 0.000000e+00 3.831095e+04
0.000000e+00 0.000000e+00 1.666197e+03
0.000000e+00 0.000000e+00 8.711175e+07
0.000000e+00 0.000000e+00 1.998416e+08
0.000000e+00 0.000000e+00 3.853274e+06
0.000000e+00 0.000000e+00 1.603878e+05
0.000000e+00 0.000000e+00 7.497077e+07
0.000000e+00 0.000000e+00 1.910610e+04
0.000000e+00 0.000000e+00 3.357573e+03
0.000000e+00 0.000000e+00 1.895701e+05
0.000000e+00 0.000000e+00 2.681044e+07
0.000000e+00 0.000000e+00 4.838888e+04
0.000000e+00 0.000000e+00 3.556935e+05
0.000000e+00 0.000000e+00 1.821092e+04
0.000000e+00 0.000000e+00 5.855553e+06
0.000000e+00 0.000000e+00 2.662184e+04
0.000000e+00 0.000000e+00 1.998321e+05
0.000000e+00 0.000000e+00 1.859695e+08
0.000000e+00 0.000000e+00 1.836959e+04
0.000000e+00 0.000000e+00 3.975678e+07
0.000000e+00 0.000000e+00 2.974560e+06
0.000000e+00 0.000000e+00 4.880862e+07
0.000000e+00 0.000000e+00 3.348142e+03
0.000000e+00 0.000000e+00 4.051583e+05
0.000000e+00 0.000000e+00 4.056579e+03
0.000000e+00 0.000000e+00 7.490126e+07
0.000000e+00 0.000000e+00 1.791467e+06
0.000000e+00 0.000000e+00 5.359916e+04
0.000000e+00 0.000000e+00 1.999288e+03
0.000000e+00 0.000000e+00 1.029959e+03
0.000000e+00 0.000000e+00 9.420034e+03
0.000000e+00 0.000000e+00 1.451824e+07
0.000000e+00 0.000000e+00 1.420068e+05
0.000000e+00 0.000000e+00 7.759537e+07
0.000000e+00 0.000000e+00 5.679614e+07
0.000000e+00 0.000000e+00 2.001544e+04
0.000000e+00 0.000000e+00 1.508555e+08
0.000000e+00 0.000000e+00 6.509660e+07
0.000000e+00 0.000000e+00 1.156821e+06
0.000000e+00 0.000000e+00 5.825352e+03
0.000000e+00 0.000000e+00 1.863804e+08
0.000000e+00 0.000000e+00 3.991157e+04
0.000000e+00 0.000000e+00 1.769351e+03
0.000000e+00 0.000000e+00 1.714522e+06
0.000000e+00 0.000000e+00 4.099335e+04
0.000000e+00 0.000000e+00 1.320481e+03
0.000000e+00 0.000000e+00 8.378089e+02
0.000000e+00 0.000000e+00 8.311094e+04
0.000000e+00 0.000000e+00 1.556356e+08
0.000000e+00 0.000000e+00 8.842692e+03
0.000000e+00 0.000000e+00 1.091384e+06
0.000000e+00 0.000000e+00 2.345133e+03
0.000000e+00 0.000000e+00 2.712037e+03
0.000000e+00 0.000000e+00 3.228506e+04
0.000000e+00 0.000000e+00 1.225347e+05
0.000000e+00 0.000000e+00 4.875862e+05
0.000000e+00 0.000000e+00 1.888299e+08
0.000000e+00 0.000000e+00 3.157406e+05
0.000000e+00 0.000000e+00 1.258920e+06
0.000000e+00 0.000000e+00 5.976914e+07
0.000000e+00 0.000000e+00 3.263955e+07
0.000000e+00 0.000000e+00 3.525684e+04
0.000000e+00 0.000000e+00 4.147268e+04
0.000000e+00 0.000000e+00 4.892721e+04
0.000000e+00 0.000000e+00 1.117317e+03
0.000000e+00 0.000000e+00 1.216172e+04
0.000000e+00 0.000000e+00 5.190828e+04
0.000000e+00 0.000000e+00 4.434066e+02
0.000000e+00 0.000000e+00 8.874652e+05
0.000000e+00 0.000000e+00 1.964745e+03
0.000000e+00 0.000000e+00 1.930108e+06
0.000000e+00 0.000000e+00 1.113031e+03
0.000000e+00 0.000000e+00 1.238623e+07
0.000000e+00 0.000000e+00 6.012420e+05
0.000000e+00 0.000000e+00 1.756154e+06
0.000000e+00 0.000000e+00 5.839169e+07
0.000000e+00 0.000000e+00 9.370104e+07
0.000000e+00 0.000000e+00 1.970211e+03
0.000000e+00 0.000000e+00 6.460149e+02
0.000000e+00 0.000000e+00 1.902367e+06
0.000000e+00 0.000000e+00 4.674381e+03
0.000000e+00 0.000000e+00 8.595022e+04
0.000000e+00 0.000000e+00 3.493519e+02
0.000000e+00 0.000000e+00 8.789104e+07
0.000000e+00 0.000000e+00 1.361808e+04
0.000000e+00 0.000000e+00 1.709353e+07
0.000000e+00 0.000000e+00 2.311590e+03
0.000000e+00 0.000000e+00 4.565232e+04
0.000000e+00 0.000000e+00 2.483311e+05
0.000000e+00 0.000000e+00 1.513524e+08
0.000000e+00 0.000000e+00 9.096083e+02
0.000000e+00 0.000000e+00 2.701003e+06
0.000000e+00 0.000000e+00 8.625499e+04
0.000000e+00 0.000000e+00 1.009098e+08
0.000000e+00 0.000000e+00 5.713034e+03
0.000000e+00 0.000000e+00 8.468634e+02
0.000000e+00 0.000000e+00 1.512238e+06
0.000000e+00 0.000000e+00 6.083760e+02
0.000000e+00 0.000000e+00 4.491564e+07
0.000000e+00 0.000000e+00 3.163183e+05
0.000000e+00 0.000000e+00 8.245899e+03
0.000000e+00 0.000000e+00 1.428274e+08
0.000000e+00 0.000000e+00 1.572937e+07
0.000000e+00 0.000000e+00 9.522125e+03
0.000000e+00 0.000000e+00 6.367408e+04
0.000000e+00 0.000000e+00 1.134349e+03
0.000000e+00 0.000000e+00 1.215932e+07
0.000000e+00 0.000000e+00 9.791798e+06
0.000000e+00 0.000000e+00 4.168654e+05
0.000000e+00 0.000000e+00 9.621490e+04
0.000000e+00 0.000000e+00 5.790422e+04
0.000000e+00 0.000000e+00 4.055053e+04
0.000000e+00 0.000000e+00 1.229978e+07
0.000000e+00 0.000000e+00 2.574260e+04
0.000000e+00 0.000000e+00 1.612773e+06
0.000000e+00 0.000000e+00 7.023088e+03
0.000000e+00 0.000000e+00 1.529559e+07
0.000000e+00 0.000000e+00 6.714147e+03
0.000000e+00 0.000000e+00 1.069133e+05
0.000000e+00 0.000000e+00 1.601543e+04
0.000000e+00 0.000000e+00 1.002712e+05
0.000000e+00 0.000000e+00 1.062936e+04
0.000000e+00 0.000000e+00 7.568728e+06
0.000000e+00 0.000000e+00 1.050965e+05
0.000000e+00 0.000000e+00 1.365140e+03
0.000000e+00 0.000000e+00 1.120972e+04
0.000000e+00 0.000000e+00 2.442839e+05
0.000000e+00 0.000000e+00 2.997873e+04
0.000000e+00 0.000000e+00 5.023770e+03
0.000000e+00 0.000000e+00 2.355504e+04
0.000000e+00 0.000000e+00 4.862506e+04
0.000000e+00 0.000000e+00 1.499558e+03
0.000000e+00 0.000000e+00 3.762042e+05
0.000000e+00 0.000000e+00 2.699680e+05
0.000000e+00 0.000000e+00 2.888069e+04
0.000000e+00 0.000000e+00 3.340483e+07
0.000000e+00 0.000000e+00 1.008024e+05
0.000000e+00 0.000000e+00 1.293725e+08
0.000000e+00 0.000000e+00 7.818965e+02
0.000000e+00 0.000000e+00 9.565499e+06
0.000000e+00 0.000000e+00 1.855716e+06
0.000000e+00 0.000000e+00 9.505411e+04
0.000000e+00 0.000000e+00 2.975967e+03
0.000000e+00 0.000000e+00 3.954932e+02
0.000000e+00 0.000000e+00 1.327304e+07
0.000000e+00 0.000000e+00 1.685483e+04
0.000000e+00 0.000000e+00 4.262852e+05
0.000000e+00 0.000000e+00 4.255665e+05
0.000000e+00 0.000000e+00 3.197743e+06
0.000000e+00 0.000000e+00 4.269136e+05
0.000000e+00 0.000000e+00 8.072893e+04
0.000000e+00 0.000000e+00 3.495468e+04
0.000000e+00 0.000000e+00 3.696697e+05
0.000000e+00 0.000000e+00 1.280563e+05
0.000000e+00 0.000000e+00 2.251433e+06
0.000000e+00 0.000000e+00 1.520725e+04
0.000000e+00 0.000000e+00 6.683589e+04
0.000000e+00 0.000000e+00 3.949750e+03
0.000000e+00 0.000000e+00 5.596587e+04
0.000000e+00 0.000000e+00 1.245482e+07
0.000000e+00 0.000000e+00 4.052218e+02
0.000000e+00 0.000000e+00 6.477635e+03
0.000000e+00 0.000000e+00 9.811414e+03
0.000000e+00 0.000000e+00 2.513924e+05
0.000000e+00 0.000000e+00 4.596043e+03
0.000000e+00 0.000000e+00 5.270624e+04
0.000000e+00 0.000000e+00 7.956464e+02
0.000000e+00 0.000000e+00 8.902489e+06
0.000000e+00 0.000000e+00 2.941576e+03
0.000000e+00 0.000000e+00 5.991002e+07
0.000000e+00 0.000000e+00 8.197163e+07
0.000000e+00 0.000000e+00 2.255182e+05
0.000000e+00 0.000000e+00 2.096471e+07
0.000000e+00 0.000000e+00 5.219609e+02
0.000000e+00 0.000000e+00 3.567058e+05
0.000000e+00 0.000000e+00 4.575554e+03
0.000000e+00 0.000000e+00 1.836178e+05
0.000000e+00 0.000000e+00 3.570879e+06
0.000000e+00 0.000000e+00 2.080440e+04
0.000000e+00 0.000000e+00 1.157629e+05
0.000000e+00 0.000000e+00 1.574990e+05
0.000000e+00 0.000000e+00 2.649931e+02
0.000000e+00 0.000000e+00 1.854445e+07
0.000000e+00 0.000000e+00 3.404339e+06
0.000000e+00 0.000000e+00 2.055286e+06
0.000000e+00 0.000000e+00 4.508959e+07
0.000000e+00 0.000000e+00 1.975594e+05
0.000000e+00 0.000000e+00 4.490749e+07
0.000000e+00 0.000000e+00 2.956012e+06
0.000000e+00 0.000000e+00 4.603017e+02
0.000000e+00 0.000000e+00 6.267781e+07
0.000000e+00 0.000000e+00 9.191308e+03
0.000000e+00 0.000000e+00 2.201134e+05
0.000000e+00 0.000000e+00 2.477815e+05
0.000000e+00 0.000000e+00 1.353068e+03
0.000000e+00 0.000000e+00 1.616672e+08
0.000000e+00 0.000000e+00 1.501313e+04
0.000000e+00 0.000000e+00 3.984213e+07
0.000000e+00 0.000000e+00 1.945142e+05
0.000000e+00 0.000000e+00 3.567977e+05
0.000000e+00 0.000000e+00 1.244746e+07
0.000000e+00 0.000000e+00 3.620641e+02
0.000000e+00 0.000000e+00 3.442830e+03
0.000000e+00 0.000000e+00 1.369131e+05
0.000000e+00 0.000000e+00 4.180984e+04
0.000000e+00 0.000000e+00 3.422627e+06
0.000000e+00 0.000000e+00 5.836570e+06
0.000000e+00 0.000000e+00 1.560747e+03
0.000000e+00 0.000000e+00 2.362220e+06
0.000000e+00 0.000000e+00 1.289932e+08
0.000000e+00 0.000000e+00 1.192064e+07
0.000000e+00 0.000000e+00 1.250490e+03
0.000000e+00 0.000000e+00 1.233685e+08
0.000000e+00 0.000000e+00 1.111919e+04
0.000000e+00 0.000000e+00 3.213590e+06
0.000000e+00 0.000000e+00 4.203692e+05
0.000000e+00 0.000000e+00 9.228751e+05
0.000000e+00 0.000000e+00 3.622858e+07
0.000000e+00 0.000000e+00 4.518541e+02
0.000000e+00 0.000000e+00 3.333973e+02
0.000000e+00 0.000000e+00 5.021404e+04
0.000000e+00 0.000000e+00 1.570251e+05
0.000000e+00 0.000000e+00 5.035422e+06
0.000000e+00 0.000000e+00 2.986292e+07
0.000000e+00 0.000000e+00 2.168044e+04
0.000000e+00 0.000000e+00 1.879759e+08
0.000000e+00 0.000000e+00 1.545042e+08
0.000000e+00 0.000000e+00 3.548141e+06
0.000000e+00 0.000000e+00 2.223665e+06
0.000000e+00 0.000000e+00 5.711827e+07
0.000000e+00 0.000000e+00 7.325512e+06
0.000000e+00 0.000000e+00 7.027710e+05
0.000000e+00 0.000000e+00 2.086705e+04
0.000000e+00 0.000000e+00 3.248180e+07
0.000000e+00 0.000000e+00 3.298922e+07
0.000000e+00 0.000000e+00 9.206848e+07
0.000000e+00 0.000000e+00 4.426178e+06
0.000000e+00 0.000000e+00 8.873156e+03
0.000000e+00 0.000000e+00 5.065750e+04
0.000000e+00 0.000000e+00 5.514765e+06
0.000000e+00 0.000000e+00 5.537521e+02
0.000000e+00 0.000000e+00 3.681794e+07
0.000000e+00 0.000000e+00 5.350070e+05
0.000000e+00 0.000000e+00 2.544631e+04
0.000000e+00 0.000000e+00 1.795637e+04
0.000000e+00 0.000000e+00 3.429910e+07
0.000000e+00 0.000000e+00 3.791251e+07
0.000000e+00 0.000000e+00 3.576060e+05
0.000000e+00 0.000000e+00 5.385679e+05
0.000000e+00 0.000000e+00 8.493385e+06
0.000000e+00 0.000000e+00 1.751765e+06
0.000000e+00 0.000000e+00 3.581007e+04
0.000000e+00 0.000000e+00 1.513091e+08
0.000000e+00 0.000000e+00 5.419206e+05
0.000000e+00 0.000000e+00 6.448947e+02
0.000000e+00 0.000000e+00 7.741136e+06
0.000000e+00 0.000000e+00 1.078142e+06
0.000000e+00 0.000000e+00 6.108052e+07
0.000000e+00 0.000000e+00 2.688413e+05
0.000000e+00 0.000000e+00 3.536284e+03
0.000000e+00 0.000000e+00 4.867827e+04
0.000000e+00 0.000000e+00 1.671523e+08
0.000000e+00 0.000000e+00 1.186096e+05
0.000000e+00 0.000000e+00 1.578544e+05
0.000000e+00 0.000000e+00 5.208175e+04
0.000000e+00 0.000000e+00 2.396309e+06
0.000000e+00 0.000000e+00 9.711030e+07
0.000000e+00 0.000000e+00 2.146233e+04
0.000000e+00 0.000000e+00 1.571548e+07
0.000000e+00 0.000000e+00 4.109957e+06
0.000000e+00 0.000000e+00 4.591495e+03
0.000000e+00 0.000000e+00 1.865261e+05
0.000000e+00 0.000000e+00 6.112220e+07
0.000000e+00 0.000000e+00 7.346798e+05
0.000000e+00 0.000000e+00 1.694144e+06
0.000000e+00 0.000000e+00 2.788728e+02
0.000000e+00 0.000000e+00 6.676000e+05
0.000000e+00 0.000000e+00 1.900105e+03
0.000000e+00 0.000000e+00 3.898436e+07
0.000000e+00 0.000000e+00 8.799605e+03
0.000000e+00 0.000000e+00 1.505049e+05
0.000000e+00 0.000000e+00 5.503111e+02
0.000000e+00 0.000000e+00 3.466815e+07
0.000000e+00 0.000000e+00 1.829856e+04
0.000000e+00 0.000000e+00 5.563505e+04
0.000000e+00 0.000000e+00 1.249937e+05
0.000000e+00 0.000000e+00 4.210303e+06
0.000000e+00 0.000000e+00 1.141227e+08
0.000000e+00 0.000000e+00 2.653624e+05
0.000000e+00 0.000000e+00 7.803099e+07
0.000000e+00 0.000000e+00 1.067887e+05
0.000000e+00 0.000000e+00 4.931602e+04
0.000000e+00 0.000000e+00 2.596079e+03
0.000000e+00 0.000000e+00 2.103665e+05
0.000000e+00 0.000000e+00 9.574685e+02
0.000000e+00 0.000000e+00 3.533154e+05
0.000000e+00 0.000000e+00 1.041806e+07
0.000000e+00 0.000000e+00 1.024452e+08
0.000000e+00 0.000000e+00 3.446080e+04
0.000000e+00 0.000000e+00 2.760281e+06
0.000000e+00 0.000000e+00 1.351937e+04
0.000000e+00 0.000000e+00 2.139082e+05
0.000000e+00 0.000000e+00 2.725067e+05
0.000000e+00 0.000000e+00 1.060322e+07
0.000000e+00 0.000000e+00 1.087846e+07
0.000000e+00 0.000000e+00 1.670601e+05
0.000000e+00 0.000000e+00 6.456752e+07
0.000000e+00 0.000000e+00 3.099034e+05
0.000000e+00 0.000000e+00 1.491210e+08
0.000000e+00 0.000000e+00 6.592139e+03
0.000000e+00 0.000000e+00 9.500461e+06
0.000000e+00 0.000000e+00 3.574955e+06
0.000000e+00 0.000000e+00 1.074752e+05
0.000000e+00 0.000000e+00 5.344715e+03
0.000000e+00 0.000000e+00 7.210582e+03
0.000000e+00 0.000000e+00 9.252118e+02
0.000000e+00 0.000000e+00 4.186509e+04
0.000000e+00 0.000000e+00 1.489693e+08
0.000000e+00 0.000000e+00 7.384470e+03
0.000000e+00 0.000000e+00 7.102240e+07
0.000000e+00 0.000000e+00 3.219135e+02
0.000000e+00 0.000000e+00 1.185760e+03
0.000000e+00 0.000000e+00 4.166929e+03
0.000000e+00 0.000000e+00 4.265927e+03
0.000000e+00 0.000000e+00 2.411610e+07


CELL_TYPES 0
POINT_DATA 500
SCALARS H2_density float 1
LOOKUP_TABLE default
7.073533e+18
1.117344e+14
3.974402e+09
1.444507e+11
7.411017e+14
2.945612e+13
1.244862e+16
1.082718e+08
1.218662e+09
1.122043e+17
2.991213e+17
9.956034e+09
2.480349e+14
5.150062e+11
1.331800e+09
1.284956e+17
2.231317e+08
5.149012e+12
5.719143e+14
9.171079e+10
1.132168e+10
9.303064e+16
2.648974e+11
1.713320e+10
3.072868e+18
2.521380e+18
2.762861e+06
2.625956e+09
1.391247e+14
2.169507e+13
3.004726e+12
5.083592e+12
1.269676e+11
5.328661e+12
3.284494e+14
3.089829e+08
1.245194e+07
2.845127e+18
5.599441e+09
1.586005e+13
5.705321e+13
4.240524e+15
1.914266e+15
5.334850e+07
5.579737e+15
2.706415e+13
1.718764e+17
2.543111e+13
5.897122e+09
8.108112e+14
1.292931e+06
8.903161e+17
1.190685e+07
2.262794e+08
1.545587e+18
1.123893e+13
2.027788e+11
3.438626e+07
8.658337e+10
6.784306e+16
6.628619e+10
1.201292e+11
1.066817e+13
8.541165e+09
1.168384e+17
2.096664e+13
6.723346e+14
9.308420e+12
3.000525e+18
4.716998e+06
2.248685e+17
2.634346e+07
1.097755e+15
1.055171e+17
4.401672e+09
3.343413e+13
3.525870e+13
5.824000e+10
2.072682e+17
7.160879e+13
9.102326e+15
1.239256e+15
4.224179e+14
7.107971e+16
2.729640e+08
2.399256e+13
2.406709e+08
6.250056e+18
2.949093e+16
2.099751e+14
2.955133e+10
5.132664e+09
8.657441e+13
3.564074e+10
2.253671e+12
1.970419e+12
3.381716e+16
5.488313e+13
1.138862e+18
1.023183e+14
2.364872e+14
5.965402e+16
2.852739e+10
2.613278e+12
4.113499e+08
3.301277e+16
7.129164e+07
9.523668e+07
9.525198e+17
2.084332e+17
6.906344e+14
4.731982e+17
2.035622e+08
1.270558e+10
2.557515e+13
1.183499e+18
1.741532e+12
2.133138e+06
1.207228e+16
5.664373e+11
2.900911e+10
8.342592e+09
8.170508e+13
4.156461e+14
2.123941e+17
4.035057e+17
2.549561e+14
8.022440e+17
1.594271e+17
1.384771e+18
6.523902e+18
1.105888e+14
1.186281e+13
1.025776e+15
2.154158e+07
8.001997e+11
6.572548e+12
9.463370e+12
5.238548e+08
2.324365e+14
9.863478e+12
1.071807e+16
4.216652e+08
4.976686e+15
1.620043e+08
9.226211e+06
2.121685e+10
2.789329e+11
7.333378e+16
5.776142e+16
1.358790e+08
6.500125e+12
1.670362e+13
1.296106e+17
8.331455e+15
3.323422e+16
2.684494e+11
4.108997e+13
5.181158e+15
1.527807e+12
3.274953e+11
6.002574e+07
1.528704e+10
5.773406e+12
3.149144e+07
3.439901e+16
2.984843e+09
4.291712e+12
4.800960e+14
2.970588e+07
1.011265e+13
1.367357e+16
1.440184e+16
1.502792e+13
4.211694e+15
3.010781e+14
1.592417e+17
2.124966e+07
1.094736e+06
2.847626e+10
1.715412e+13
3.301933e+07
1.210814e+15
3.921479e+16
1.227509e+13
4.509229e+08
1.887049e+14
3.479985e+12
1.332791e+15
1.204867e+10
6.236021e+14
1.104542e+13
1.484392e+06
1.309864e+15
1.765190e+08
4.827424e+10
1.054646e+08
3.943603e+16
2.680593e+12
2.686442e+16
3.310728e+07
1.349250e+11
1.537914e+14
1.106005e+17
4.167470e+17
4.981559e+15
1.772921e+09
2.188695e+13
2.990086e+07
7.100676e+07
1.103282e+15
3.387423e+06
4.910036e+07
3.259631e+11
1.302699e+16
1.470841e+06
2.774082e+14
1.412150e+17
1.474385e+11
2.629570e+14
2.535401e+17
6.298301e+17
6.394158e+13
3.011188e+06
5.653328e+15
3.665006e+11
8.038423e+16
6.010529e+16
4.239865e+14
2.940243e+13
1.849112e+12
1.392863e+06
4.418441e+12
2.749105e+11
6.194904e+07
2.843887e+08
3.555115e+14
2.569123e+14
1.845741e+14
3.541270e+17
2.988589e+15
1.639772e+14
2.248594e+18
5.555878e+11
1.145237e+17
1.160512e+11
3.568596e+17
2.496660e+09
1.214495e+12
1.404630e+11
6.594965e+07
1.701706e+07
1.138891e+17
1.059325e+18
1.194988e+11
2.023233e+16
5.978489e+13
3.622343e+18
2.068701e+07
2.383514e+15
1.241380e+09
8.273404e+16
2.120129e+14
7.148365e+12
3.345913e+06
5.343234e+17
5.873358e+10
5.936294e+13
1.349772e+07
1.354426e+16
6.164341e+17
1.899651e+11
1.194457e+18
1.302804e+08
4.402289e+12
6.501300e+15
4.147013e+06
1.489378e+09
4.875308e+15
1.089612e+14
3.435727e+17
2.597528e+09
4.116783e+09
2.531802e+12
4.770338e+13
1.317668e+14
2.687328e+14
2.534414e+09
6.669347e+14
1.668253e+11
8.962437e+15
1.582984e+09
9.806233e+15
3.862930e+13
1.723297e+15
4.391987e+13
3.912458e+15
7.069929e+09
3.997724e+13
2.372229e+17
3.517806e+15
7.387535e+12
4.917456e+14
1.751592e+16
7.965837e+14
1.868757e+14
1.965999e+17
3.110131e+12
6.046939e+12
5.298551e+14
2.691127e+08
4.345791e+13
5.906467e+06
7.231279e+17
4.325193e+09
1.256504e+11
4.887625e+13
4.991678e+16
2.826426e+18
2.151978e+09
1.555908e+15
2.420882e+12
2.429087e+12
4.166313e+10
2.413743e+12
6.777248e+13
3.616857e+14
3.221300e+12
2.691981e+13
8.497261e+10
1.911349e+15
9.889220e+13
2.833731e+16
1.410554e+14
2.467278e+09
2.692340e+18
1.053543e+16
4.592034e+15
6.975080e+12
2.092793e+16
1.590481e+14
6.983505e+17
5.031895e+09
5.109081e+16
6.155753e+07
2.546969e+07
8.670030e+12
7.890886e+08
1.622703e+18
3.460220e+12
2.111579e+16
1.308474e+13
3.326690e+10
1.021181e+15
3.294556e+13
1.778975e+13
6.295744e+18
1.037158e+09
3.667198e+10
1.021972e+11
1.290171e+08
1.130131e+13
1.303400e+08
4.889247e+10
2.086557e+18
5.446728e+07
5.232591e+15
9.101606e+12
7.180160e+12
2.414745e+17
2.602465e+06
1.961099e+15
1.755900e+08
1.165834e+13
3.458433e+12
2.470404e+09
3.372445e+18
3.729659e+16
2.354721e+13
2.527844e+14
3.627345e+10
1.212984e+10
1.814867e+17
7.709023e+10
5.967400e+06
2.710062e+09
2.827162e+17
6.962924e+06
3.575321e+15
4.124565e+10
2.489672e+12
5.135602e+11
2.214377e+08
2.165304e+18
3.977333e+18
1.752326e+14
1.789741e+13
1.644852e+10
3.508305e+08
9.403134e+14
1.419514e+06
3.095740e+06
3.370352e+10
8.713606e+10
6.994673e+07
7.568464e+09
8.878841e+11
1.015058e+15
2.876826e+08
2.772671e+08
1.796222e+07
2.143899e+10
5.614574e+15
1.721771e+14
1.363749e+10
1.441730e+18
2.129472e+08
1.535001e+12
6.825587e+14
1.370851e+15
2.526333e+08
1.982998e+08
3.442785e+12
1.514707e+12
5.554563e+09
1.411750e+11
3.446094e+14
3.349505e+06
1.495965e+12
1.063008e+18
6.745040e+09
3.756165e+11
5.842372e+07
6.097808e+12
3.535132e+16
1.864672e+14
2.284668e+06
3.138205e+13
1.770967e+13
1.628863e+14
7.488295e+10
1.523002e+07
9.595242e+14
1.492253e+09
2.495615e+10
2.096941e+16
1.267946e+13
5.831592e+07
8.121332e+11
1.510423e+11
5.684651e+18
9.843017e+11
1.224483e+17
1.852324e+08
5.708829e+15
1.948317e+13
1.459817e+18
2.462289e+08
1.320054e+15
1.427385e+14
2.825612e+13
2.375313e+10
9.056193e+06
6.258996e+12
2.941919e+07
3.871953e+13
1.816744e+14
6.559472e+16
9.965678e+12
4.822406e+17
3.527085e+12
3.610441e+09
1.286538e+07
3.721291e+14
5.619944e+10
2.418448e+15
9.638005e+12
5.934620e+12
3.477981e+09
3.293703e+09
1.581002e+13
5.021499e+07
4.586768e+12
3.537003e+06
1.017260e+16
4.387916e+09
3.318952e+10
3.822613e+13
1.547539e+16
8.502385e+15
5.164528e+17
2.521175e+14
3.550438e+06
8.106658e+15
3.851364e+07
4.266165e+18
3.144257e+17
2.546036e+16
2.429234e+16
5.749678e+08
SCALARS Mol_density float 1
LOOKUP_TABLE default
0.000000e+00
0.000000e+00
0.000000e+00
0.000000e+00
0.000000e+00
0.000000e+00
0.000000e+00
0.000000e+00
0.000000e+00
0.000000e+00
0.000000e+00
0.000000e+00
0.000000e+00
0.000000e+00
0.000000e+00
0.000000e+00
0.000000e+00
0.000000e+00
0.000000e+00
0.000000e+00
0.000000e+00
0.000000e+00
0.000000e+00
0.000000e+00
0.000000e+00
0.000000e+00
0.000000e+00
0.000000e+00
0.000000e+00
0.000000e+00
0.000000e+00
0.000000e+00
0.000000e+00
0.000000e+00
0.000000e+00
0.000000e+00
0.000000e+00
0.000000e+00
0.000000e+00
0.000000e+00
0.000000e+00
0.000000e+00
0.000000e+00
0.000000e+00
0.000000e+00
0.000000e+00
0.000000e+00
0.000000e+00
0.000000e+00
0.000000e+00
0.000000e+00
0.000000e+00
0.000000e+00
0.000000e+00
0.000000e+00
0.000000e+00
0.000000e+00
0.000000e+00
0.000000e+00
0.000000e+00
0.000000e+00
0.000000e+00
0.000000e+00
0.000000e+00
0.000000e+00
0.000000e+00
0.000000e+00
0.000000e+00
0.000000e+00
0.000000e+00
0.000000e+00
0.000000e+00
0.000000e+00
0.000000e+00
0.000000e+00
0.000000e+00
0.000000e+00
0.000000e+00
0.000000e+00
0.000000e+00
0.000000e+00
0.000000e+00
0.000000e+00
0.000000e+00
0.000000e+00
0.000000e+00
0.000000e+00
0.000000e+00
0.000000e+00
0.000000e+00
0.000000e+00
0.000000e+00
0.000000e+00
0.000000e+00
0.000000e+00
0.000000e+00
0.000000e+00
0.000000e+00
0.000000e+00
0.000000e+00
0.000000e+00
0.000000e+00
0.000000e+00
0.000000e+00
0.000000e+00
0.000000e+00
0.000000e+00
0.000000e+00
0.000000e+00
0.000000e+00
0.000000e+00
0.000000e+00
0.000000e+00
0.000000e+00
0.000000e+00
0.000000e+00
0.000000e+00
0.000000e+00
0.000000e+00
0.000000e+00
0.000000e+00
0.000000e+00
0.000000e+00
0.000000e+00
0.000000e+00
0.000000e+00
0.000000e+00
0.000000e+00
0.000000e+00
0.000000e+00
0.000000e+00
0.000000e+00
0.000000e+00
0.000000e+00
0.000000e+00
0.000000e+00
0.000000e+00
0.000000e+00
0.000000e+00
0.000000e+00
0.000000e+00
0.000000e+00
0.000000e+00
0.000000e+00
0.000000e+00
0.000000e+00
0.000000e+00
0.000000e+00
0.000000e+00
0.000000e+00
0.000000e+00
0.000000e+00
0.000000e+00
0.000000e+00
0.000000e+00
0.000000e+00
0.000000e+00
0.000000e+00
0.000000e+00
0.000000e+00
0.000000e+00
0.000000e+00
0.000000e+00
0.000000e+00
0.000000e+00
0.000000e+00
0.000000e+00
0.000000e+00
0.000000e+00
0.000000e+00
0.000000e+00
0.000000e+00
0.000000e+00
0.000000e+00
0.000000e+00
0.000000e+00
0.000000e+00
0.000000e+00
0.000000e+00
0.000000e+00
0.000000e+00
0.000000e+00
0.000000e+00
0.000000e+00
0.000000e+00
0.000000e+00
0.000000e+00
0.000000e+00
0.000000e+00
0.000000e+00
0.000000e+00
0.000000e+00
0.000000e+00
0.000000e+00
0.000000e+00
0.000000e+00
0.000000e+00
0.000000e+00
0.000000e+00
0.000000e+00
0.000000e+00
0.000000e+00
0.000000e+00
0.000000e+00
0.000000e+00
0.000000e+00
0.000000e+00
0.000000e+00
0.000000e+00
0.000000e+00
0.000000e+00
0.000000e+00
0.000000e+00
0.000000e+00
0.000000e+00
0.000000e+00
0.000000e+00
0.000000e+00
0.000000e+00
0.000000e+00
0.000000e+00
0.000000e+00
0.000000e+00
0.000000e+00
0.000000e+00
0.000000e+00
0.000000e+00
0.000000e+00
0.000000e+00
0.000000e+00
0.000000e+00
0.000000e+00
0.000000e+00
0.000000e+00
0.000000e+00
0.000000e+00
0.000000e+00
0.000000e+00
0.000000e+00
0.000000e+00
0.000000e+00
0.000000e+00
0.000000e+00
0.000000e+00
0.000000e+00
0.000000e+00
0.000000e+00
0.000000e+00
0.000000e+00
0.000000e+00
0.000000e+00
0.000000e+00
0.000000e+00
0.000000e+00
0.000000e+00
0.000000e+00
0.000000e+00
0.000000e+00
0.000000e+00
0.000000e+00
0.000000e+00
0.000000e+00
0.000000e+00
0.000000e+00
0.000000e+00
0.000000e+00
0.000000e+00
0.000000e+00
0.000000e+00
0.000000e+00
0.000000e+00
0.000000e+00
0.000000e+00
0.000000e+00
0.000000e+00
0.000000e+00
0.000000e+00
0.000000e+00
0.000000e+00
0.000000e+00
0.000000e+00
0.000000e+00
0.000000e+00
0.000000e+00
0.000000e+00
0.000000e+00
0.000000e+00
0.000000e+00
0.000000e+00
0.000000e+00
0.000000e+00