# vtk DataFile Version 3.0
Lime grid
ASCII
DATASET UNSTRUCTURED_GRID
POINTS 500 float
0.000000e+00 0.000000e+00 2.500000e+02
0.000000e+00 0.000000e+00 6.287923e+04
0.000000e+00 0.000000e+00 9.956169e+06
0.000000e+00 0.000000e+00 1.731987e+06
0.000000e+00 0.000000e+00 2.442072e+04
0.000000e+00 0.000000e+00 1.224231e+05
0.000000e+00 0.000000e+00 5.959134e+03
0.000000e+00 0.000000e+00 4.831075e+07
0.000000e+00 0.000000e+00 1.723773e+07
0.000000e+00 0.000000e+00 1.984948e+03
0.000000e+00 0.000000e+00 1.215716e+03
0.000000e+00 0.000000e+00 6.420573e+06
0.000000e+00 0.000000e+00 4.220814e+04
0.000000e+00 0.000000e+00 9.215855e+05
0.000000e+00 0.000000e+00 1.655463e+07
0.000000e+00 0.000000e+00 1.854855e+03
0.000000e+00 0.000000e+00 3.611462e+07
0.000000e+00 0.000000e+00 2.925240e+05
0.000000e+00 0.000000e+00 2.779863e+04
0.000000e+00 0.000000e+00 2.168191e+06
0.000000e+00 0.000000e+00 6.034378e+06
0.000000e+00 0.000000e+00 2.179919e+03
0.000000e+00 0.000000e+00 1.282319e+06
0.000000e+00 0.000000e+00 4.936607e+06
0.000000e+00 0.000000e+00 3.793027e+02
0.000000e+00 0.000000e+00 4.187343e+02
0.000000e+00 0.000000e+00 1.591798e+08
0.000000e+00 0.000000e+00 1.209764e+07
0.000000e+00 0.000000e+00 5.635275e+04
0.000000e+00 0.000000e+00 1.426329e+05
0.000000e+00 0.000000e+00 3.827315e+05
0.000000e+00 0.000000e+00 2.943970e+05
0.000000e+00 0.000000e+00 1.846167e+06
0.000000e+00 0.000000e+00 2.875589e+05
0.000000e+00 0.000000e+00 3.668025e+04
0.000000e+00 0.000000e+00 3.151764e+07
0.000000e+00 0.000000e+00 1.034989e+08
0.000000e+00 0.000000e+00 3.941913e+02
0.000000e+00 0.000000e+00 8.460872e+06
0.000000e+00 0.000000e+00 1.667966e+05
0.000000e+00 0.000000e+00 8.798276e+04
0.000000e+00 0.000000e+00 1.020994e+04
0.000000e+00 0.000000e+00 1.519566e+04
0.000000e+00 0.000000e+00 6.315639e+07
0.000000e+00 0.000000e+00 8.900811e+03
0.000000e+00 0.000000e+00 1.277146e+05
0.000000e+00 0.000000e+00 1.603787e+03
0.000000e+00 0.000000e+00 1.317483e+05
0.000000e+00 0.000000e+00 8.254419e+06
0.000000e+00 0.000000e+00 2.334749e+04
0.000000e+00 0.000000e+00 1.922023e+08
0.000000e+00 0.000000e+00 7.046686e+02
0.000000e+00 0.000000e+00 1.049538e+08
0.000000e+00 0.000000e+00 3.590590e+07
0.000000e+00 0.000000e+00 5.348239e+02
0.000000e+00 0.000000e+00 1.981063e+05
0.000000e+00 0.000000e+00 1.464087e+06
0.000000e+00 0.000000e+00 7.391564e+07
0.000000e+00 0.000000e+00 2.230661e+06
0.000000e+00 0.000000e+00 2.552699e+03
0.000000e+00 0.000000e+00 2.544776e+06
0.000000e+00 0.000000e+00 1.897423e+06
0.000000e+00 0.000000e+00 2.033305e+05
0.000000e+00 0.000000e+00 6.912294e+06
0.000000e+00 0.000000e+00 1.945186e+03
0.000000e+00 0.000000e+00 1.450874e+05
0.000000e+00 0.000000e+00 2.563903e+04
0.000000e+00 0.000000e+00 2.176575e+05
0.000000e+00 0.000000e+00 3.838479e+02
0.000000e+00 0.000000e+00 1.378417e+08
0.000000e+00 0.000000e+00 1.402139e+03
0.000000e+00 0.000000e+00 8.103768e+07
0.000000e+00 0.000000e+00 2.006576e+04
0.000000e+00 0.000000e+00 2.046880e+03
0.000000e+00 0.000000e+00 9.486379e+06
0.000000e+00 0.000000e+00 1.149145e+05
0.000000e+00 0.000000e+00 1.119037e+05
0.000000e+00 0.000000e+00 2.712248e+06
0.000000e+00 0.000000e+00 1.460457e+03
0.000000e+00 0.000000e+00 7.853770e+04
0.000000e+00 0.000000e+00 6.968914e+03
0.000000e+00 0.000000e+00 1.888560e+04
0.000000e+00 0.000000e+00 3.234494e+04
0.000000e+00 0.000000e+00 2.493904e+03
0.000000e+00 0.000000e+00 3.320645e+07
0.000000e+00 0.000000e+00 1.356374e+05
0.000000e+00 0.000000e+00 3.499907e+07
0.000000e+00 0.000000e+00 2.659599e+02
0.000000e+00 0.000000e+00 3.871728e+03
0.000000e+00 0.000000e+00 4.587326e+04
0.000000e+00 0.000000e+00 3.784050e+06
0.000000e+00 0.000000e+00 8.818929e+06
0.000000e+00 0.000000e+00 7.143063e+04
0.000000e+00 0.000000e+00 3.452281e+06
0.000000e+00 0.000000e+00 4.417768e+05
0.000000e+00 0.000000e+00 4.723804e+05
0.000000e+00 0.000000e+00 3.615606e+03
0.000000e+00 0.000000e+00 8.970442e+04
0.000000e+00 0.000000e+00 6.230484e+02
0.000000e+00 0.000000e+00 6.570781e+04
0.000000e+00 0.000000e+00 4.322613e+04
0.000000e+00 0.000000e+00 2.722276e+03
0.000000e+00 0.000000e+00 3.849895e+06
0.000000e+00 0.000000e+00 4.103311e+05
0.000000e+00 0.000000e+00 2.789480e+07
0.000000e+00 0.000000e+00 3.659389e+03
0.000000e+00 0.000000e+00 5.671061e+07
0.000000e+00 0.000000e+00 5.077990e+07
0.000000e+00 0.000000e+00 6.812713e+02
0.000000e+00 0.000000e+00 1.456370e+03
0.000000e+00 0.000000e+00 2.529712e+04
0.000000e+00 0.000000e+00 9.665734e+02
0.000000e+00 0.000000e+00 3.750716e+07
0.000000e+00 0.000000e+00 5.707074e+06
0.000000e+00 0.000000e+00 1.313770e+05
0.000000e+00 0.000000e+00 6.111860e+02
0.000000e+00 0.000000e+00 5.023774e+05
0.000000e+00 0.000000e+00 1.700802e+08
0.000000e+00 0.000000e+00 6.051304e+03
0.000000e+00 0.000000e+00 8.789680e+05
0.000000e+00 0.000000e+00 3.818490e+06
0.000000e+00 0.000000e+00 6.990893e+06
0.000000e+00 0.000000e+00 7.352744e+04
0.000000e+00 0.000000e+00 3.260731e+04
0.000000e+00 0.000000e+00 1.442726e+03
0.000000e+00 0.000000e+00 1.046722e+03
0.000000e+00 0.000000e+00 4.163144e+04
0.000000e+00 0.000000e+00 7.423414e+02
0.000000e+00 0.000000e+00 1.665228e+03
0.000000e+00 0.000000e+00 5.650260e+02
0.000000e+00 0.000000e+00 2.603181e+02
0.000000e+00 0.000000e+00 6.320396e+04
0.000000e+00 0.000000e+00 1.928325e+05
0.000000e+00 0.000000e+00 2.075775e+04
0.000000e+00 0.000000e+00 8.671728e+07
0.000000e+00 0.000000e+00 7.401145e+05
0.000000e+00 0.000000e+00 2.589649e+05
0.000000e+00 0.000000e+00 2.158704e+05
0.000000e+00 0.000000e+00 2.511899e+07
0.000000e+00 0.000000e+00 4.360106e+04
0.000000e+00 0.000000e+00 2.114522e+05
0.000000e+00 0.000000e+00 6.422208e+03
0.000000e+00 0.000000e+00 2.759875e+07
0.000000e+00 0.000000e+00 9.424645e+03
0.000000e+00 0.000000e+00 4.116310e+07
0.000000e+00 0.000000e+00 1.134847e+08
0.000000e+00 0.000000e+00 4.448708e+06
0.000000e+00 0.000000e+00 1.249875e+06
0.000000e+00 0.000000e+00 2.455278e+03
0.000000e+00 0.000000e+00 2.766514e+03
0.000000e+00 0.000000e+00 4.417067e+07
0.000000e+00 0.000000e+00 2.604014e+05
0.000000e+00 0.000000e+00 1.625342e+05
0.000000e+00 0.000000e+00 1.846860e+03
0.000000e+00 0.000000e+00 7.284170e+03
0.000000e+00 0.000000e+00 3.647177e+03
0.000000e+00 0.000000e+00 1.273870e+06
0.000000e+00 0.000000e+00 1.036646e+05
0.000000e+00 0.000000e+00 9.236814e+03
0.000000e+00 0.000000e+00 5.362612e+05
0.000000e+00 0.000000e+00 1.154130e+06
0.000000e+00 0.000000e+00 6.047242e+07
0.000000e+00 0.000000e+00 5.217703e+06
0.000000e+00 0.000000e+00 2.762792e+05
0.000000e+00 0.000000e+00 7.621638e+07
0.000000e+00 0.000000e+00 3.584898e+03
0.000000e+00 0.000000e+00 1.139342e+07
0.000000e+00 0.000000e+00 3.203599e+05
0.000000e+00 0.000000e+00 3.034020e+04
0.000000e+00 0.000000e+00 7.777065e+07
0.000000e+00 0.000000e+00 2.088341e+05
0.000000e+00 0.000000e+00 5.685957e+03
0.000000e+00 0.000000e+00 5.540333e+03
0.000000e+00 0.000000e+00 1.713478e+05
0.000000e+00 0.000000e+00 1.024483e+04
0.000000e+00 0.000000e+00 3.831095e+04
0.000000e+00 0.000000e+00 1.666197e+03
0.000000e+00 0.000000e+00 8.711175e+07
0.000000e+00 0.000000e+00 1.998416e+08
0.000000e+00 0.000000e+00 3.853274e+06
0.000000e+00 0.000000e+00 1.603878e+05
0.000000e+00 0.000000e+00 7.497077e+07
0.000000e+00 0.000000e+00 1.910610e+04
0.000000e+00 0.000000e+00 3.357573e+03
0.000000e+00 0.000000e+00 1.895701e+05
0.000000e+00 0.000000e+00 2.681044e+07
0.000000e+00 0.000000e+00 4.838888e+04
0.000000e+00 0.000000e+00 3.556935e+05
0.000000e+00 0.000000e+00 1.821092e+04
0.000000e+00 0.000000e+00 5.855553e+06
0.000000e+00 0.000000e+00 2.662184e+04
0.000000e+00 0.000000e+00 1.998321e+05
0.000000e+00 0.000000e+00 1.859695e+08
0.000000e+00 0.000000e+00 1.836959e+04
0.000000e+00 0.000000e+00 3.975678e+07
0.000000e+00 0.000000e+00 2.974560e+06
0.000000e+00 0.000000e+00 4.880862e+07
0.000000e+00 0.000000e+00 3.348142e+03
0.000000e+00 0.000000e+00 4.051583e+05
0.000000e+00 0.000000e+00 4.056579e+03
0.000000e+00 0.000000e+00 7.490126e+07
0.000000e+00 0.000000e+00 1.791467e+06
0.000000e+00 0.000000e+00 5.359916e+04
0.000000e+00 0.000000e+00 1.999288e+03
0.000000e+00 0.000000e+00 1.029959e+03
0.000000e+00 0.000000e+00 9.420034e+03
0.000000e+00 0.000000e+00 1.451824e+07
0.000000e+00 0.000000e+00 1.420068e+05
0.000000e+00 0.000000e+00 7.759537e+07
0.000000e+00 0.000000e+00 5.679614e+07
0.000000e+00 0.000000e+00 2.001544e+04
0.000000e+00 0.000000e+00 1.508555e+08
0.000000e+00 0.000000e+00 6.509660e+07
0.000000e+00 0.000000e+00 1.156821e+06
0.000000e+00 0.000000e+00 5.825352e+03
0.000000e+00 0.000000e+00 1.863804e+08
0.000000e+00 0.000000e+00 3.991157e+04
0.000000e+00 0.000000e+00 1.769351e+03
0.000000e+00 0.000000e+00 1.714522e+06
0.000000e+00 0.000000e+00 4.099335e+04
0.000000e+00 0.000000e+00 1.320481e+03
0.000000e+00 0.000000e+00 8.378089e+02
0.000000e+00 0.000000e+00 8.311094e+04
0.000000e+00 0.000000e+00 1.556356e+08
0.000000e+00 0.000000e+00 8.842692e+03
0.000000e+00 0.000000e+00 1.091384e+06
0.000000e+00 0.000000e+00 2.345133e+03
0.000000e+00 0.000000e+00 2.712037e+03
0.000000e+00 0.000000e+00 3.228506e+04
0.000000e+00 0.000000e+00 1.225347e+05
0.000000e+00 0.000000e+00 4.875862e+05
0.000000e+00 0.000000e+00 1.888299e+08
0.000000e+00 0.000000e+00 3.157406e+05
0.000000e+00 0.000000e+00 1.258920e+06
0.000000e+00 0.000000e+00 5.976914e+07
0.000000e+00 0.000000e+00 3.263955e+07
0.000000e+00 0.000000e+00 3.525684e+04
0.000000e+00 0.000000e+00 4.147268e+04
0.000000e+00 0.000000e+00 4.892721e+04
0.000000e+00 0.000000e+00 1.117317e+03
0.000000e+00 0.000000e+00 1.216172e+04
0.000000e+00 0.000000e+00 5.190828e+04
0.000000e+00 0.000000e+00 4.434066e+02
0.000000e+00 0.000000e+00 8.874652e+05
0.000000e+00 0.000000e+00 1.964745e+03
0.000000e+00 0.000000e+00 1.930108e+06
0.000000e+00 0.000000e+00 1.113031e+03
0.000000e+00 0.000000e+00 1.238623e+07
0.000000e+00 0.000000e+00 6.012420e+05
0.000000e+00 0.000000e+00 1.756154e+06
0.000000e+00 0.000000e+00 5.839169e+07
0.000000e+00 0.000000e+00 9.370104e+07
0.000000e+00 0.000000e+00 1.970211e+03
0.000000e+00 0.000000e+00 6.460149e+02
0.000000e+00 0.000000e+00 1.902367e+06
0.000000e+00 0.000000e+00 4.674381e+03
0.000000e+00 0.000000e+00 8.595022e+04
0.000000e+00 0.000000e+00 3.493519e+02
0.000000e+00 0.000000e+00 8.789104e+07
0.000000e+00 0.000000e+00 1.361808e+04
0.000000e+00 0.000000e+00 1.709353e+07
0.000000e+00 0.000000e+00 2.311590e+03
0.000000e+00 0.000000e+00 4.565232e+04
0.000000e+00 0.000000e+00 2.483311e+05
0.000000e+00 0.000000e+00 1.513524e+08
0.000000e+00 0.000000e+00 9.096083e+02
0.000000e+00 0.000000e+00 2.701003e+06
0.000000e+00 0.000000e+00 8.625499e+04
0.000000e+00 0.000000e+00 1.009098e+08
0.000000e+00 0.000000e+00 5.713034e+03
0.000000e+00 0.000000e+00 8.468634e+02
0.000000e+00 0.000000e+00 1.512238e+06
0.000000e+00 0.000000e+00 6.083760e+02
0.000000e+00 0.000000e+00 4.491564e+07
0.000000e+00 0.000000e+00 3.163183e+05
0.000000e+00 0.000000e+00 8.245899e+03
0.000000e+00 0.000000e+00 1.428274e+08
0.000000e+00 0.000000e+00 1.572937e+07
0.000000e+00 0.000000e+00 9.522125e+03
0.000000e+00 0.000000e+00 6.367408e+04
0.000000e+00 0.000000e+00 1.134349e+03
0.000000e+00 0.000000e+00 1.215932e+07
0.000000e+00 0.000000e+00 9.791798e+06
0.000000e+00 0.000000e+00 4.168654e+05
0.000000e+00 0.000000e+00 9.621490e+04
0.000000e+00 0.000000e+00 5.790422e+04
0.000000e+00 0.000000e+00 4.055053e+04
0.000000e+00 0.000000e+00 1.229978e+07
0.000000e+00 0.000000e+00 2.574260e+04
0.000000e+00 0.000000e+00 1.612773e+06
0.000000e+00 0.000000e+00 7.023088e+03
0.000000e+00 0.000000e+00 1.529559e+07
0.000000e+00 0.000000e+00 6.714147e+03
0.000000e+00 0.000000e+00 1.069133e+05
0.000000e+00 0.000000e+00 1.601543e+04
0.000000e+00 0.000000e+00 1.002712e+05
0.000000e+00 0.000000e+00 1.062936e+04
0.000000e+00 0.000000e+00 7.568728e+06
0.000000e+00 0.000000e+00 1.050965e+05
0.000000e+00 0.000000e+00 1.365140e+03
0.000000e+00 0.000000e+00 1.120972e+04
0.000000e+00 0.000000e+00 2.442839e+05
0.000000e+00 0.000000e+00 2.997873e+04
0.000000e+00 0.000000e+00 5.023770e+03
0.000000e+00 0.000000e+00 2.355504e+04
0.000000e+00 0.000000e+00 4.862506e+04
0.000000e+00 0.000000e+00 1.499558e+03
0.000000e+00 0.000000e+00 3.762042e+05
0.000000e+00 0.000000e+00 2.699680e+05
0.000000e+00 0.000000e+00 2.888069e+04
0.000000e+00 0.000000e+00 3.340483e+07
0.000000e+00 0.000000e+00 1.008024e+05
0.000000e+00 0.000000e+00 1.293725e+08
0.000000e+00 0.000000e+00 7.818965e+02
0.000000e+00 0.000000e+00 9.565499e+06
0.000000e+00 0.000000e+00 1.855716e+06
0.000000e+00 0.000000e+00 9.505411e+04
0.000000e+00 0.000000e+00 2.975967e+03
0.000000e+00 0.000000e+00 3.954932e+02
0.000000e+00 0.000000e+00 1.327304e+07
0.000000e+00 0.000000e+00 1.685483e+04
0.000000e+00 0.000000e+00 4.262852e+05
0.000000e+00 0.000000e+00 4.255665e+05
0.000000e+00 0.000000e+00 3.197743e+06
0.000000e+00 0.000000e+00 4.269136e+05
0.000000e+00 0.000000e+00 8.072893e+04
0.000000e+00 0.000000e+00 3.495468e+04
0.000000e+00 0.000000e+00 3.696697e+05
0.000000e+00 0.000000e+00 1.280563e+05
0.000000e+00 0.000000e+00 2.251433e+06
0.000000e+00 0.000000e+00 1.520725e+04
0.000000e+00 0.000000e+00 6.683589e+04
0.000000e+00 0.000000e+00 3.949750e+03
0.000000e+00 0.000000e+00 5.596587e+04
0.000000e+00 0.000000e+00 1.245482e+07
0.000000e+00 0.000000e+00 4.052218e+02
0.000000e+00 0.000000e+00 6.477635e+03
0.000000e+00 0.000000e+00 9.811414e+03
0.000000e+00 0.000000e+00 2.513924e+05
0.000000e+00 0.000000e+00 4.596043e+03
0.000000e+00 0.000000e+00 5.270624e+04
0.000000e+00 0.000000e+00 7.956464e+02
0.000000e+00 0.000000e+00 8.902489e+06
0.000000e+00 0.000000e+00 2.941576e+03
0.000000e+00 0.000000e+00 5.991002e+07
0.000000e+00 0.000000e+00 8.197163e+07
0.000000e+00 0.000000e+00 2.255182e+05
0.000000e+00 0.000000e+00 2.096471e+07
0.000000e+00 0.000000e+00 5.219609e+02
0.000000e+00 0.000000e+00 3.567058e+05
0.000000e+00 0.000000e+00 4.575554e+03
0.000000e+00 0.000000e+00 1.836178e+05
0.000000e+00 0.000000e+00 3.570879e+06
0.000000e+00 0.000000e+00 2.080440e+04
0.000000e+00 0.000000e+00 1.157629e+05
0.000000e+00 0.000000e+00 1.574990e+05
0.000000e+00 0.000000e+00 2.649931e+02
0.000000e+00 0.000000e+00 1.854445e+07
0.000000e+00 0.000000e+00 3.404339e+06
0.000000e+00 0.000000e+00 2.055286e+06
0.000000e+00 0.000000e+00 4.508959e+07
0.000000e+00 0.000000e+00 1.975594e+05
0.000000e+00 0.000000e+00 4.490749e+07
0.000000e+00 0.000000e+00 2.956012e+06
0.000000e+00 0.000000e+00 4.603017e+02
0.000000e+00 0.000000e+00 6.267781e+07
0.000000e+00 0.000000e+00 9.191308e+03
0.000000e+00 0.000000e+00 2.201134e+05
0.000000e+00 0.000000e+00 2.477815e+05
0.000000e+00 0.000000e+00 1.353068e+03
0.000000e+00 0.000000e+00 1.616672e+08
0.000000e+00 0.000000e+00 1.501313e+04
0.000000e+00 0.000000e+00 3.984213e+07
0.000000e+00 0.000000e+00 1.945142e+05
0.000000e+00 0.000000e+00 3.567977e+05
0.000000e+00 0.000000e+00 1.244746e+07
0.000000e+00 0.000000e+00 3.620641e+02
0.000000e+00 0.000000e+00 3.442830e+03
0.000000e+00 0.000000e+00 1.369131e+05
0.000000e+00 0.000000e+00 4.180984e+04
0.000000e+00 0.000000e+00 3.422627e+06
0.000000e+00 0.000000e+00 5.836570e+06
0.000000e+00 0.000000e+00 1.560747e+03
0.000000e+00 0.000000e+00 2.362220e+06
0.000000e+00 0.000000e+00 1.289932e+08
0.000000e+00 0.000000e+00 1.192064e+07
0.000000e+00 0.000000e+00 1.250490e+03
0.000000e+00 0.000000e+00 1.233685e+08
0.000000e+00 0.000000e+00 1.111919e+04
0.000000e+00 0.000000e+00 3.213590e+06
0.000000e+00 0.000000e+00 4.203692e+05
0.000000e+00 0.000000e+00 9.228751e+05
0.000000e+00 0.000000e+00 3.622858e+07
0.000000e+00 0.000000e+00 4.518541e+02
0.000000e+00 0.000000e+00 3.333973e+02
0.000000e+00 0.000000e+00 5.021404e+04
0.000000e+00 0.000000e+00 1.570251e+05
0.000000e+00 0.000000e+00 5.035422e+06
0.000000e+00 0.000000e+00 2.986292e+07
0.000000e+00 0.000000e+00 2.168044e+04
0.000000e+00 0.000000e+00 1.879759e+08
0.000000e+00 0.000000e+00 1.545042e+08
0.000000e+00 0.000000e+00 3.548141e+06
0.000000e+00 0.000000e+00 2.223665e+06
0.000000e+00 0.000000e+00 5.711827e+07
0.000000e+00 0.000000e+00 7.325512e+06
0.000000e+00 0.000000e+00 7.027710e+05
0.000000e+00 0.000000e+00 2.086705e+04
0.000000e+00 0.000000e+00 3.248180e+07
0.000000e+00 0.000000e+00 3.298922e+07
0.000000e+00 0.000000e+00 9.206848e+07
0.000000e+00 0.000000e+00 4.426178e+06
0.000000e+00 0.000000e+00 8.873156e+03
0.000000e+00 0.000000e+00 5.065750e+04
0.000000e+00 0.000000e+00 5.514765e+06
0.000000e+00 0.000000e+00 5.537521e+02
0.000000e+00 0.000000e+00 3.681794e+07
0.000000e+00 0.000000e+00 5.350070e+05
0.000000e+00 0.000000e+00 2.544631e+04
0.000000e+00 0.000000e+00 1.795637e+04
0.000000e+00 0.000000e+00 3.429910e+07
0.000000e+00 0.000000e+00 3.791251e+07
0.000000e+00 0.000000e+00 3.576060e+05
0.000000e+00 0.000000e+00 5.385679e+05
0.000000e+00 0.000000e+00 8.493385e+06
0.000000e+00 0.000000e+00 1.751765e+06
0.000000e+00 0.000000e+00 3.581007e+04
0.000000e+00 0.000000e+00 1.513091e+08
0.000000e+00 0.000000e+00 5.419206e+05
0.000000e+00 0.000000e+00 6.448947e+02
0.000000e+00 0.000000e+00 7.741136e+06
0.000000e+00 0.000000e+00 1.078142e+06
0.000000e+00 0.000000e+00 6.108052e+07
0.000000e+00 0.000000e+00 2.688413e+05
0.000000e+00 0.000000e+00 3.536284e+03
0.000000e+00 0.000000e+00 4.867827e+04
0.000000e+00 0.000000e+00 1.671523e+08
0.000000e+00 0.000000e+00 1.186096e+05
0.000000e+00 0.000000e+00 1.578544e+05
0.000000e+00 0.000000e+00 5.208175e+04
0.000000e+00 0.000000e+00 2.396309e+06
0.000000e+00 0.000000e+00 9.711030e+07
0.000000e+00 0.000000e+00 2.146233e+04
0.000000e+00 0.000000e+00 1.571548e+07
0.000000e+00 0.000000e+00 4.109957e+06
0.000000e+00 0.000000e+00 4.591495e+03
0.000000e+00 0.000000e+00 1.865261e+05
0.000000e+00 0.000000e+00 6.112220e+07
0.000000e+00 0.000000e+00 7.346798e+05
0.000000e+00 0.000000e+00 1.694144e+06
0.000000e+00 0.000000e+00 2.788728e+02
0.000000e+00 0.000000e+00 6.676000e+05
0.000000e+00 0.000000e+00 1.900105e+03
0.000000e+00 0.000000e+00 3.898436e+07
0.000000e+00 0.000000e+00 8.799605e+03
0.000000e+00 0.000000e+00 1.505049e+05
0.000000e+00 0.000000e+00 5.503111e+02
0.000000e+00 0.000000e+00 3.466815e+07
0.000000e+00 0.000000e+00 1.829856e+04
0.000000e+00 0.000000e+00 5.563505e+04
0.000000e+00 0.000000e+00 1.249937e+05
0.000000e+00 0.000000e+00 4.210303e+06
0.000000e+00 0.000000e+00 1.141227e+08
0.000000e+00 0.000000e+00 2.653624e+05
0.000000e+00 0.000000e+00 7.803099e+07
0.000000e+00 0.000000e+00 1.067887e+05
0.000000e+00 0.000000e+00 4.931602e+04
0.000000e+00 0.000000e+00 2.596079e+03
0.000000e+00 0.000000e+00 2.103665e+05
0.000000e+00 0.000000e+00 9.574685e+02
0.000000e+00 0.000000e+00 3.533154e+05
0.000000e+00 0.000000e+00 1.041806e+07
0.000000e+00 0.000000e+00 1.024452e+08
0.000000e+00 0.000000e+00 3.446080e+04
0.000000e+00 0.000000e+00 2.760281e+06
0.000000e+00 0.000000e+00 1.351937e+04
0.000000e+00 0.000000e+00 2.139082e+05
0.000000e+00 0.000000e+00 2.725067e+05
0.000000e+00 0.000000e+00 1.060322e+07
0.000000e+00 0.000000e+00 1.087846e+07
0.000000e+00 0.000000e+00 1.670601e+05
0.000000e+00 0.000000e+00 6.456752e+07
0.000000e+00 0.000000e+00 3.099034e+05
0.000000e+00 0.000000e+00 1.491210e+08
0.000000e+00 0.000000e+00 6.592139e+03
0.000000e+00 0.000000e+00 9.500461e+06
0.000000e+00 0.000000e+00 3.574955e+06
0.000000e+00 0.000000e+00 1.074752e+05
0.000000e+00 0.000000e+00 5.344715e+03
0.000000e+00 0.000000e+00 7.210582e+03
0.000000e+00 0.000000e+00 9.252118e+02
0.000000e+00 0.000000e+00 4.186509e+04
0.000000e+00 0.000000e+00 1.489693e+08
0.000000e+00 0.000000e+00 7.384470e+03
0.000000e+00 0.000000e+00 7.102240e+07
0.000000e+00 0.000000e+00 3.219135e+02
0.000000e+00 0.000000e+00 1.185760e+03
0.000000e+00 0.000000e+00 4.166929e+03
0.000000e+00 0.000000e+00 4.265927e+03
0.000000e+00 0.000000e+00 2.411610e+07


CELL_TYPES 0
POINT_DATA 500
SCALARS H2_density float 1
LOOKUP_TABLE default
1.818907e+18
2.872573e+13
9.888788e+08
3.693226e+10
1.905536e+14
7.571363e+12
3.201012e+15
2.372935e+07
2.960013e+08
2.885235e+16
7.691661e+16
2.506322e+09
6.377151e+13
1.320271e+11
3.242132e+08
3.304153e+16
5.091584e+07
1.322751e+12
1.470501e+14
2.341424e+10
2.853751e+09
2.392199e+16
6.782816e+10
4.334319e+09
7.901649e+17
6.483541e+17
4.196167e+05
6.487573e+08
3.576824e+13
5.576101e+12
7.716661e+11
1.305937e+12
3.245004e+10
1.368924e+12
8.444818e+13
7.158633e+07
2.273647e+06
7.316032e+17
1.400116e+09
4.076049e+12
1.466656e+13
1.090384e+15
4.922150e+14
1.113179e+07
1.434747e+15
6.956414e+12
4.419656e+16
6.536579e+12
1.475557e+09
2.084782e+14
1.760469e+05
2.289379e+17
2.163679e+06
5.166976e+07
3.974359e+17
2.888117e+12
5.189119e+10
6.924219e+06
2.210061e+10
1.744521e+16
1.690214e+10
3.069710e+10
2.741400e+12
2.146650e+09
3.004395e+16
5.388834e+12
1.728714e+14
2.391871e+12
7.715626e+17
7.688016e+05
5.782305e+16
5.181161e+06
2.822612e+14
2.713277e+16
1.096892e+09
8.594080e+12
9.063166e+12
1.484224e+10
5.329728e+16
1.840891e+13
2.340544e+15
3.186460e+14
1.086101e+14
1.827749e+16
6.288902e+07
6.166747e+12
5.512107e+07
1.607156e+18
7.583284e+15
5.398541e+13
7.504389e+09
1.281882e+09
2.225673e+13
9.060696e+09
5.786692e+11
5.058882e+11
8.695737e+15
1.410862e+13
2.928495e+17
2.630470e+13
6.080230e+13
1.533947e+16
7.242787e+09
6.710742e+11
9.645210e+07
8.488896e+15
1.519643e+07
2.070272e+07
2.449331e+17
5.359684e+16
1.775769e+14
1.216792e+17
4.623685e+07
3.206048e+09
6.573610e+12
3.043276e+17
4.470788e+11
3.125023e+05
3.104238e+15
1.452324e+11
7.365855e+09
2.096198e+09
2.100477e+13
1.068689e+14
5.461538e+16
1.037582e+17
6.555111e+13
2.062908e+17
4.099530e+16
3.560833e+17
1.677573e+18
2.843118e+13
3.048491e+12
2.637530e+14
4.157884e+06
2.052625e+11
1.688637e+12
2.431701e+12
1.239650e+08
5.976076e+13
2.534549e+12
2.756016e+15
9.896767e+07
1.279679e+15
3.635510e+07
1.629910e+06
5.376062e+09
7.142966e+10
1.885711e+16
1.485280e+16
3.019050e+07
1.670021e+12
4.292909e+12
3.332824e+16
2.142323e+15
8.545840e+15
6.873958e+10
1.056237e+13
1.332257e+15
3.921684e+11
8.389219e+10
1.263677e+07
3.863688e+09
1.483234e+12
6.293223e+06
8.845354e+15
7.391420e+08
1.102414e+12
1.234409e+14
5.905956e+06
2.598599e+12
3.515995e+15
3.703263e+15
3.862134e+12
1.082970e+15
7.741028e+13
4.094764e+16
4.096190e+06
1.453408e+05
7.229724e+09
4.408721e+12
6.625800e+06
3.113324e+14
1.008369e+16
3.154473e+12
1.061110e+08
4.851636e+13
8.938009e+11
3.426971e+14
3.038795e+09
1.603407e+14
2.838375e+12
2.063268e+05
3.368016e+14
3.979703e+07
1.229183e+10
2.307608e+07
1.014058e+16
6.883721e+11
6.907900e+15
6.644976e+06
3.449000e+10
3.953936e+13
2.843994e+16
1.071631e+17
1.280932e+15
4.345170e+08
5.625431e+12
5.948167e+06
1.513142e+07
2.836823e+14
5.288375e+05
1.017982e+07
8.349895e+10
3.349732e+15
2.041656e+05
7.132413e+13
3.631222e+16
3.769833e+10
6.760834e+13
6.519574e+16
1.619559e+17
1.643760e+13
4.627253e+05
1.453670e+15
9.390339e+10
2.067007e+16
1.545551e+16
1.090135e+14
7.557561e+12
4.747197e+11
1.917814e+05
1.134984e+12
7.039749e+10
1.307205e+07
6.564418e+07
9.140659e+13
6.605409e+13
4.745423e+13
9.106088e+16
7.684633e+14
4.215832e+13
5.782091e+17
1.424466e+11
2.944875e+16
2.965181e+10
9.176356e+16
6.162253e+08
3.116783e+11
3.590984e+10
1.397978e+07
3.209566e+06
2.928558e+16
2.723974e+17
3.053550e+10
5.202519e+15
1.536889e+13
9.314585e+17
3.977464e+06
6.128759e+14
3.016633e+08
2.127431e+16
5.450937e+13
1.836642e+12
5.214990e+05
1.373970e+17
1.496858e+10
1.526040e+13
2.485798e+06
3.482744e+15
1.585112e+17
4.860441e+10
3.071454e+17
2.887534e+07
1.130833e+12
1.671717e+15
6.648465e+05
3.635651e+08
1.253611e+15
2.801271e+13
8.834694e+16
6.416030e+08
1.024862e+09
6.501377e+11
1.226268e+13
3.387641e+13
6.909346e+13
6.257227e+08
1.714829e+14
4.266968e+10
2.304573e+15
3.869697e+08
2.521547e+15
9.929737e+12
4.431100e+14
1.128993e+13
1.006025e+15
1.773030e+09
1.027629e+13
6.099990e+16
9.045452e+14
1.898117e+12
1.264363e+14
4.504018e+15
2.048199e+14
4.804602e+13
5.055401e+16
7.987533e+11
1.553539e+12
1.362354e+14
6.196104e+07
1.117116e+13
9.900186e+05
1.859467e+17
1.077551e+09
3.211237e+10
1.256423e+13
1.283562e+16
7.267943e+17
5.295952e+08
4.000683e+14
6.216353e+11
6.237436e+11
1.060065e+10
6.198010e+11
1.742256e+13
9.299414e+13
8.273220e+11
6.919304e+12
2.168797e+10
4.914650e+14
2.542380e+13
7.286642e+15
3.626467e+13
6.088351e+08
6.923152e+17
2.709051e+15
1.180770e+15
1.792101e+12
5.381386e+15
4.089096e+13
1.795754e+17
1.256367e+09
1.313751e+16
1.298338e+07
4.993857e+06
2.227774e+12
1.893137e+08
4.172658e+17
8.887215e+11
5.429692e+15
3.362603e+12
8.453893e+09
2.625712e+14
8.468471e+12
4.572125e+12
1.618904e+18
2.508293e+08
9.324340e+09
2.610121e+10
2.857887e+07
2.904152e+12
2.888932e+07
1.245001e+10
5.365423e+17
1.138324e+07
1.345483e+15
2.338710e+12
1.844814e+12
6.209317e+16
3.920173e+05
5.042576e+14
3.957640e+07
2.995931e+12
8.882624e+11
6.096214e+08
8.671992e+17
9.590442e+15
6.052256e+12
6.499272e+13
9.222450e+09
3.059458e+09
4.666776e+16
1.966891e+10
1.001488e+06
6.699282e+08
7.269814e+16
1.190509e+06
9.193345e+14
1.049388e+10
6.393119e+11
1.316558e+11
5.051024e+07
5.567917e+17
1.022742e+18
4.505232e+13
4.599800e+12
4.159751e+09
8.172787e+07
2.417775e+14
1.960039e+05
4.775021e+05
8.565495e+09
2.224220e+10
1.488966e+07
1.899583e+09
2.277829e+11
2.609969e+14
6.643917e+07
6.392634e+07
3.406178e+06
5.432754e+09
1.443705e+15
4.426669e+13
3.443391e+09
3.707300e+17
4.847892e+07
3.940165e+11
1.755003e+14
3.524836e+14
5.799498e+07
4.498119e+07
8.842410e+11
3.888029e+11
1.388745e+09
3.609239e+10
8.860335e+13
5.221337e+05
3.839878e+11
2.733444e+17
1.690588e+09
9.624325e+10
1.227480e+07
1.566614e+12
9.090233e+15
4.794100e+13
3.379586e+05
8.066504e+12
4.551538e+12
4.187784e+13
1.910358e+10
2.840302e+06
2.467173e+14
3.642838e+08
6.330639e+09
5.392053e+15
3.258420e+12
1.225046e+07
2.083274e+11
3.862239e+10
1.461766e+18
2.525478e+11
3.148652e+16
4.186835e+07
1.467942e+15
5.007465e+12
3.753808e+17
5.645581e+07
3.394218e+14
3.669742e+13
7.262856e+12
6.023471e+09
1.596502e+06
1.608044e+12
5.843922e+06
9.952935e+12
4.670864e+13
1.686707e+16
2.560820e+12
1.240043e+17
9.059054e+11
8.969495e+08
2.357341e+06
9.567944e+13
1.431993e+10
6.218587e+14
2.476591e+12
1.524670e+12
8.635131e+08
8.170163e+08
4.063187e+12
1.042915e+07
1.178246e+12
5.553669e+05
2.615754e+15
1.093413e+09
8.434116e+09
9.826083e+12
3.979316e+15
2.186275e+15
1.328017e+17
6.482124e+13
5.577561e+05
2.084518e+15
7.829914e+06
1.097013e+18
8.085202e+16
6.546860e+15
6.246514e+15
1.365125e+08
SCALARS Mol_density float 1
LOOKUP_TABLE default
0.000000e+00
0.000000e+00
0.000000e+00
0.000000e+00
0.000000e+00
0.000000e+00
0.000000e+00
0.000000e+00
0.000000e+00
0.000000e+00
0.000000e+00
0.000000e+00
0.000000e+00
0.000000e+00
0.000000e+00
0.000000e+00
0.000000e+00
0.000000e+00
0.000000e+00
0.000000e+00
0.000000e+00
0.000000e+00
0.000000e+00
0.000000e+00
0.000000e+00
0.000000e+00
0.000000e+00
0.000000e+00
0.000000e+00
0.000000e+00
0.000000e+00
0.000000e+00
0.000000e+00
0.000000e+00
0.000000e+00
0.000000e+00
0.000000e+00
0.000000e+00
0.000000e+00
0.000000e+00
0.000000e+00
0.000000e+00
0.000000e+00
0.000000e+00
0.000000e+00
0.000000e+00
0.000000e+00
0.000000e+00
0.000000e+00
0.000000e+00
0.000000e+00
0.000000e+00
0.000000e+00
0.000000e+00
0.000000e+00
0.000000e+00
0.000000e+00
0.000000e+00
0.000000e+00
0.000000e+00
0.000000e+00
0.000000e+00
0.000000e+00
0.000000e+00
0.000000e+00
0.000000e+00
0.000000e+00
0.000000e+00
0.000000e+00
0.000000e+00
0.000000e+00
0.000000e+00
0.000000e+00
0.000000e+00
0.000000e+00
0.000000e+00
0.000000e+00
0.000000e+00
0.000000e+00
0.000000e+00
0.000000e+00
0.000000e+00
0.000000e+00
0.000000e+00
0.000000e+00
0.000000e+00
0.000000e+00
0.000000e+00
0.000000e+00
0.000000e+00
0.000000e+00
0.000000e+00
0.000000e+00
0.000000e+00
0.000000e+00
0.000000e+00
0.000000e+00
0.000000e+00
0.000000e+00
0.000000e+00
0.000000e+00
0.000000e+00
0.000000e+00
0.000000e+00
0.000000e+00
0.000000e+00
0.000000e+00
0.000000e+00
0.000000e+00
0.000000e+00
0.000000e+00
0.000000e+00
0.000000e+00
0.000000e+00
0.000000e+00
0.000000e+00
0.000000e+00
0.000000e+00
0.000000e+00
0.000000e+00
0.000000e+00
0.000000e+00
0.000000e+00
0.000000e+00
0.000000e+00
0.000000e+00
0.000000e+00
0.000000e+00
0.000000e+00
0.000000e+00
0.000000e+00
0.000000e+00
0.000000e+00
0.000000e+00
0.000000e+00
0.000000e+00
0.000000e+00
0.000000e+00
0.000000e+00
0.000000e+00
0.000000e+00
0.000000e+00
0.000000e+00
0.000000e+00
0.000000e+00
0.000000e+00
0.000000e+00
0.000000e+00
0.000000e+00
0.000000e+00
0.000000e+00
0.000000e+00
0.000000e+00
0.000000e+00
0.000000e+00
0.000000e+00
0.000000e+00
0.000000e+00
0.000000e+00
0.000000e+00
0.000000e+00
0.000000e+00
0.000000e+00
0.000000e+00
0.000000e+00
0.000000e+00
0.000000e+00
0.000000e+00
0.000000e+00
0.000000e+00
0.000000e+00
0.000000e+00
0.000000e+00
0.000000e+00
0.000000e+00
0.000000e+00
0.000000e+00
0.000000e+00
0.000000e+00
0.000000e+00
0.000000e+00
0.000000e+00
0.000000e+00
0.000000e+00
0.000000e+00
0.000000e+00
0.000000e+00
0.000000e+00
0.000000e+00
0.000000e+00
0.000000e+00
0.000000e+00
0.000000e+00
0.000000e+00
0.000000e+00
0.000000e+00
0.000000e+00
0.000000e+00
0.000000e+00
0.000000e+00
0.000000e+00
0.000000e+00
0.000000e+00
0.000000e+00
0.000000e+00
0.000000e+00
0.000000e+00
0.000000e+00
0.000000e+00
0.000000e+00
0.000000e+00
0.000000e+00
0.000000e+00
0.000000e+00
0.000000e+00
0.000000e+00
0.000000e+00
0.000000e+00
0.000000e+00
0.000000e+00
0.000000e+00
0.000000e+00
0.000000e+00
0.000000e+00
0.000000e+00
0.000000e+00
0.000000e+00
0.000000e+00
0.000000e+00
0.000000e+00
0.000000e+00
0.000000e+00
0.000000e+00
0.000000e+00
0.000000e+00
0.000000e+00
0.000000e+00
0.000000e+00
0.000000e+00
0.000000e+00
0.000000e+00
0.000000e+00
0.000000e+00
0.000000e+00
0.000000e+00
0.000000e+00
0.000000e+00
0.000000e+00
0.000000e+00
0.000000e+00
0.000000e+00
0.000000e+00
0.000000e+00
0.000000e+00
0.000000e+00
0.000000e+00
0.000000e+00
0.000000e+00
0.000000e+00
0.000000e+00
0.000000e+00
0.000000e+00
0.000000e+00
0.000000e+00
0.000000e+00
0.000000e+00
0.000000e+00
0.000000e+00
0.000000e+00
0.000000e+00
0.000000e+00
0.000000e+00
0.000000e+00
0.000000e+00
0.000000e+00
0.000000e+00
0.000000e+00
0.000000e+00
0.000000e+00
0.000000e+00
0.000000e+00
0.000000e+00
0.000000e+00
0.000000e+00
0.000000e+00
0.000000e+00
0.000000e+00
0.000000e+00
0.000000e+00
0.000000e+00
0.000000e+00